# vtk DataFile Version 3.0
MOAB 4.99 (Alpha)
ASCII
DATASET UNSTRUCTURED_GRID
POINTS 457 double
0 -1 1
0 1 1
0 -0.6 1
0 -0.2 1
0 0.2 1
0 0.6 1
0 1 -1
0 1 0.6
0 1 0.2
0 1 -0.2
0 1 -0.6
0 -1 -1
0 0.6 -1
0 0.2 -1
0 -0.2 -1
0 -0.6 -1
0 -1 -0.6
0 -1 -0.2
0 -1 0.2
0 -1 0.6
0 -0.4052531952 0.6719438381
0 0.001326739737 0.6398182875
0 0.4084466782 0.6730790076
0 0.671668119 0.4109975243
0 0.6409559612 0.002665308352
0 0.6741562537 -0.4067531861
0 0.4126332896 -0.6703225438
0 0.005823851008 -0.6385848783
0 -0.4033337139 -0.671818987
0 -0.6657077798 -0.40925766
0 -0.6331965555 -5.201324309e-05
0 -0.6677757402 0.4090861353
0 -0.7346057871 0.7362059947
0 0.7360229594 0.7368153064
0 0.7373579087 -0.735415146
0 -0.7338082987 -0.7362153294
0 -0.2405618544 0.2463031768
0 0.2488935914 0.2473010883
0 0.2507661259 -0.2443109294
0 -0.2398134703 -0.2452073142
0 0.004821098151 0.001021505389
3 1 1
0.375 1 1
0.75 1 1
1.125 1 1
1.5 1 1
1.875 1 1
2.25 1 1
2.625 1 1
3 -1 1
2.625 -1 1
2.25 -1 1
1.875 -1 1
1.5 -1 1
1.125 -1 1
0.75 -1 1
0.375 -1 1
3 -0.6 1
3 -0.2 1
3 0.2 1
3 0.6 1
0.5051722492 0.6423612468 1
0.9126445746 0.6436367449 1
1.305865967 0.6580484746 1
1.688419081 0.6656634151 1
2.070560737 0.6699173913 1
2.47095257 0.654958819 1
0.3045321161 -0.3321450215 1
0.3297045651 0.003954053695 1
0.3031518466 0.3391619139 1
2.496518416 -0.6444993806 1
2.089437641 -0.6484888302 1
1.696472775 -0.6606559536 1
1.310410893 -0.6601586509 1
0.9145626663 -0.6430290874 1
0.5048111999 -0.6367418762 1
2.698685229 -0.3478643401 1
2.673925788 -0.03759912285 1
2.630822662 0.307407269 1
0.6891800874 0.2413179328 1
1.117995254 0.31081986 1
1.501602224 0.3288992524 1
1.879773297 0.3413765722 1
2.251995373 0.347453633 1
0.6906986346 -0.241721174 1
2.330694409 -0.2691157534 1
1.898453339 -0.3123467399 1
1.50523074 -0.3255357202 1
1.119997336 -0.3128153358 1
0.9871659053 -0.001021893381 1
1.32151729 0.0007785871564 1
1.696158716 0.0108146455 1
2.074427116 0.0329213637 1
2.39237307 0.07621347787 1
3 -1 -1
0.375 -1 -1
0.75 -1 -1
1.125 -1 -1
1.5 -1 -1
1.875 -1 -1
2.25 -1 -1
2.625 -1 -1
3 -1 -0.6
3 -1 -0.2
3 -1 0.2
3 -1 0.6
2.471508153 -1 0.6460273584
2.068792354 -1 0.6608223542
1.687924014 -1 0.6649854989
1.307949266 -1 0.6632613651
0.9174050019 -1 0.6484799184
0.5072979902 -1 0.6414756587
0.3066313627 -1 -0.3298929865
0.3333855076 -1 0.006496285401
0.3069635043 -1 0.3403761757
0.5063175254 -1 -0.6332052894
0.9156711783 -1 -0.6380349219
1.306429657 -1 -0.6565467701
1.690791533 -1 -0.6624079911
2.086482814 -1 -0.6550911236
2.496694682 -1 -0.6507494607
2.698549156 -1 -0.3584791895
2.673951335 -1 -0.04911838862
2.630964327 -1 0.2971136723
2.250781107 -1 0.3344578894
1.876894445 -1 0.3355041419
1.499121226 -1 0.3333610368
1.120300442 -1 0.319300288
0.6949668592 -1 0.2477467145
0.6942132107 -1 -0.234766637
1.119237222 -1 -0.306801495
1.501312 -1 -0.3233970803
1.893256234 -1 -0.3180522551
2.329509523 -1 -0.279715851
2.071332166 -1 0.02258040655
1.69299873 -1 0.009530785496
1.320014408 -1 0.006932590817
0.9897464282 -1 0.006482292234
2.391307692 -1 0.06506354573
3 1 -1
2.625 1 -1
2.25 1 -1
1.875 1 -1
1.5 1 -1
1.125 1 -1
0.75 1 -1
0.375 1 -1
3 0.6 -1
3 0.2 -1
3 -0.2 -1
3 -0.6 -1
0.5051722492 -0.6423612468 -1
0.9126445746 -0.6436367449 -1
1.305865967 -0.6580484746 -1
1.688419081 -0.6656634151 -1
2.070560737 -0.6699173913 -1
2.47095257 -0.654958819 -1
0.3045321161 0.3321450215 -1
0.3297045651 -0.003954053695 -1
0.3031518466 -0.3391619139 -1
2.496518416 0.6444993806 -1
2.089437641 0.6484888302 -1
1.696472775 0.6606559536 -1
1.310410893 0.6601586509 -1
0.9145626663 0.6430290874 -1
0.5048111999 0.6367418762 -1
2.698685229 0.3478643401 -1
2.673925788 0.03759912285 -1
2.630822662 -0.307407269 -1
0.6891800874 -0.2413179328 -1
1.117995254 -0.31081986 -1
1.501602224 -0.3288992524 -1
1.879773297 -0.3413765722 -1
2.251995373 -0.347453633 -1
0.6906986346 0.241721174 -1
2.330694409 0.2691157534 -1
1.898453339 0.3123467399 -1
1.50523074 0.3255357202 -1
1.119997336 0.3128153358 -1
0.9871659053 0.001021893381 -1
1.32151729 -0.0007785871564 -1
1.696158716 -0.0108146455 -1
2.074427116 -0.0329213637 -1
2.39237307 -0.07621347787 -1
3 1 0.6
3 1 0.2
3 1 -0.2
3 1 -0.6
2.471508153 1 -0.6460273584
2.068792354 1 -0.6608223542
1.687924014 1 -0.6649854989
1.307949266 1 -0.6632613651
0.9174050019 1 -0.6484799184
0.5072979902 1 -0.6414756587
0.3066313627 1 0.3298929865
0.3333855076 1 -0.006496285401
0.3069635043 1 -0.3403761757
0.5063175254 1 0.6332052894
0.9156711783 1 0.6380349219
1.306429657 1 0.6565467701
1.690791533 1 0.6624079911
2.086482814 1 0.6550911236
2.496694682 1 0.6507494607
2.698549156 1 0.3584791895
2.673951335 1 0.04911838862
2.630964327 1 -0.2971136723
2.250781107 1 -0.3344578894
1.876894445 1 -0.3355041419
1.499121226 1 -0.3333610368
1.120300442 1 -0.319300288
0.6949668592 1 -0.2477467145
0.6942132107 1 0.234766637
1.119237222 1 0.306801495
1.501312 1 0.3233970803
1.893256234 1 0.3180522551
2.329509523 1 0.279715851
2.071332166 1 -0.02258040655
1.69299873 1 -0.009530785496
1.320014408 1 -0.006932590817
0.9897464282 1 -0.006482292234
2.391307692 1 -0.06506354573
3 0.4078020432 -0.6749386695
3 -0.002766679691 -0.6463410443
3 -0.4112057218 -0.6804751274
3 0.6738065205 0.4096535765
3 0.6392445975 0.001240977363
3 0.6700947697 -0.4102754248
3 -0.3800088874 0.6821110447
3 0.01793759988 0.6594720195
3 0.4138645449 0.6772501547
3 -0.6747109622 -0.4230382477
3 -0.6486777191 -0.04064326267
3 -0.6106821934 0.3715558838
3 0.7355793626 -0.7370428189
3 -0.7371833368 -0.740702675
3 0.7375342131 0.7373807462
3 -0.7181382162 0.7307333857
3 0.2352751843 -0.2445881183
3 -0.2727034516 -0.2738282128
3 0.2488119959 0.2685945903
3 -0.1884632912 0.3500036415
3 -0.06527557032 0.0371682853
3 -0.3571604451 0.08885126704
1.382847905 0.419354409 0.078918688
1.512703657 0.1668794006 0.1632564515
1.239435792 0.2288596034 0.4327279925
1.153616786 0.1710781753 0.165997088
1.30789721 -0.005008070264 -0.004825044423
1.499691963 0.1677078605 -0.1719100475
1.283345461 0.4421007931 -0.2248791307
1.002545476 0.3296097219 0.005863263737
1.264318585 0.6627244353 -0.004670279101
1.692998767 0.6666668057 -0.006353923585
1.692998767 0.3333335817 -0.003177056788
1.56819284 0.4425138831 -0.2281978726
0.7253351212 0.1684835851 0.009472563863
0.8992058635 -0.064827241 0.2395737022
0.5126469731 0.1849205941 0.1992238909
0.4252019525 -0.0119457785 0.01325218193
0.6620721817 -0.01033856813 -0.3284833133
0.501776576 0.2058564276 -0.1721281558
0.924711287 0.0597452037 -0.203850165
0.9060174823 0.4449999928 -0.2523384392
0.8223276138 0.2234371156 -0.5002391338
1.346586585 0.005849987268 0.3527111411
1.46151948 -0.3190177679 -0.2086981684
1.478307962 -0.1682829112 0.1499860585
1.271666527 -0.3213887513 0.01630652696
1.152963638 0.1733939648 -0.1716388166
1.328954816 -0.01671070047 -0.3339306414
1.071712375 -0.1131084189 -0.4032779634
1.101858139 -0.4564827979 -0.2355139554
2.733579159 -0.5216830969 -0.5991829038
2.674300432 -0.1946258694 -0.6282466054
1.861673117 0.004678244703 0.0008337616455
1.69257772 -0.2233438045 -0.41614151
1.7060256 -0.3369055092 0.008211300708
1.884108067 0.275662154 -0.225993976
1.20993495 0.2238710672 -0.4439044893
1.678264856 0.2034219056 -0.4462839961
1.259396553 -0.549851954 0.2416270077
1.809915423 -0.2155605704 0.4364313483
1.711367726 0.001738457475 0.3288374245
2.455195665 -0.2132536918 -0.2179357409
2.102766037 -0.3137688339 0.005528696813
2.138640642 -0.07632844895 -0.2503524721
2.26803565 -0.5005776882 -0.1671417058
2.781495094 -0.2573728859 0.07285779715
2.496546507 -0.4132493436 0.1199103221
2.678674936 -0.5390529037 -0.2009365559
2.537436962 -0.0881767422 0.01990634389
2.769908905 -0.0572325401 -0.2206646204
2.380741835 -0.3936069906 -0.4874296486
2.754520416 -0.04960199073 0.2854048014
2.383031607 -0.1611050963 0.2809549272
2.236895084 -0.5126907825 0.2478096634
2.508197308 -0.4592610002 0.5450149775
2.744637728 -0.4775494933 0.2557869256
0.822776556 -0.2270845473 -0.4852369428
0.7020758986 -0.1921640337 -0.005815658253
0.5424691439 -0.3127651215 -0.3019032776
0.2784984112 -0.2563466132 0.02361502685
0.8069620132 -0.4743821025 0.1835371852
0.7069047093 -0.7464302182 0.5132071972
0.7379179597 -0.7427873611 -0.0002078714169
1.095036149 -0.7641423345 0.2606624067
2.676486492 0.1558091193 -0.5125009418
2.304766178 0.1222333238 0.006212244742
2.137881517 0.07003407925 0.2802823782
2.266121149 0.5076519847 0.1588975936
2.444022655 0.3232415617 0.3543980122
2.150038958 0.4304296374 -0.2567894757
2.52804327 0.1915812045 -0.1429159641
1.085435152 -0.7438007593 -0.4842171371
2.063739061 0.3219355643 -0.008874365129
1.798339844 0.1997283995 0.4293933213
1.947623014 0.4595043361 0.2090283632
2.295720339 0.05337591842 0.7242236733
2.212450743 -0.2007032633 0.4966985285
1.947679877 -0.4407740831 0.2183093727
2.597417593 -0.1749093831 0.6973099709
1.629677296 0.4906087816 0.39134866
1.500994563 0.2680524588 0.5861746669
2.236869335 0.7314585447 -0.6004917622
2.071332216 0.6666668057 -0.01505360845
1.970589042 -0.02422119305 -0.4684966505
1.99624753 0.7556296587 -0.3126296997
2.386128902 -0.7609332204 -0.447163105
2.366138697 -0.772566855 -0.1074046567
1.947165966 -0.448414892 -0.2105663568
1.218020916 -0.3718079925 0.4659680724
1.534649253 -0.4490436018 0.4000443816
0.3292632401 -0.2250968665 -0.4944902658
2.661649942 0.2485611141 0.5261665583
2.738189936 0.6644791961 0.7017985582
0.9926325083 -0.3445100784 -0.01290206332
0.9858894348 -0.1278511584 0.7443723679
0.8125650287 -0.2171581089 0.5115552545
0.5841794014 -0.3157697618 0.3400400877
0.7338327765 0.4709016085 0.06918742508
0.8080136776 0.199506864 0.4789630473
0.3476029634 -0.1666586399 0.5054131746
1.270457745 0.5068500638 0.5083636045
0.7791165113 -0.4951654673 -0.1450119317
0.316557467 0.4347202182 0.3312404454
2.068560123 0.2490921766 0.719969511
2.219309807 0.1971967667 -0.4708699286
2.346963406 -0.01102780644 -0.7377060652
2.061929464 -0.3991389275 -0.4732386172
1.784462929 -0.250819236 -0.7340707779
1.034938693 0.005942922551 -0.7068126798
[...]
CELL_DATA 3125
SCALARS TALLY_TAG double 1
LOOKUP_TABLE default
0 
0 
0 
0 
0 
0 
0 
0 
0 
0 
0 
0 
0 
0 
0 
0 
0 
0 
0 
0 
0 
0 
0 
0 
0 
0 
0 
0 
0 
0 
0 
0 
0 
0 
0 
0 
0 
0 
0 
0 
0 
0 
0 
0 
0 
0 
0 
0 
0 
0 
0 
0 
0 
0 
0 
0 
0 
0 
0 
0 
0 
0 
0 
0 
0 
0 
0 
0 
0 
0 
0 
0 
0 
0 
0 
0 
0 
0 
0 
0 
0 
0 
0 
0 
0 
0 
0 
0 
0 
0 
0 
0 
0 
0 
0 
0 
0 
0 
0 
0 
0 
0 
0 
0 
0 
0 
0 
0 
0 
0 
0 
0 
0 
0 
0 
0 
0 
0 
0 
0 
0 
0 
0 
0 
0 
0 
0 
0 
0 
0 
0 
0 
0 
0 
0 
0 
0 
0 
0 
0 
0 
0 
0 
0 
0 
0 
0 
0 
0 
0 
0 
0 
0 
0 
0 
0 
0 
0 
0 
0 
0 
0 
0 
0 
0 
0 
0 
0 
0 
0 
0 
0 
0 
0 
0 
0 
0 
0 
0 
0 
0 
0 
0 
0 
0 
0 
0 
0 
0 
0 
0 
0 
0 
0 
0 
0 
0 
0 
0 
0 
0 
0 
0 
0 
0 
0 
0 
0 
0 
0 
0 
0 
0 
0 
0 
0 
0 
0 
0 
0 
0 
0 
0 
0 
0 
0 
0 
0 
0 
0 
0 
0 
0 
0 
0 
0 
0 
0 
0 
0 
0 
0 
0 
0 
0 
0 
0 
0 
0 
0 
0 
0 
0 
0 
0 
0 
0 
0 
0 
0 
0 
0 
0 
0 
0 
0 
0 
0 
0 
0 
0 
0 
0 
0 
0 
0 
0 
0 
0 
0 
0 
0 
0 
0 
0 
0 
0 
0 
0 
0 
0 
0 
0 
0 
0 
0 
0 
0 
0 
0 
0 
0 
0 
0 
0 
0 
0 
0 
0 
0 
0 
0 
0 
0 
0 
0 
0 
0 
0 
0 
0 
0 
0 
0 
0 
0 
0 
0 
0 
0 
0 
0 
0 
0 
0 
0 
0 
0 
0 
0 
0 
0 
0 
0 
0 
0 
0 
0 
0 
0 
0 
0 
0 
0 
0 
0 
0 
0 
0 
0 
0 
0 
0 
0 
0 
0 
0 
0 
0 
0 
0 
0 
0 
0 
0 
0 
0 
0 
0 
0 
0 
0 
0 
0 
0 
0 
0 
0 
0 
0 
0 
0 
0 
0 
0 
0 
0 
0 
0 
0 
0 
0 
0 
0 
0 
0 
0 
0 
0 
0 
0 
0 
0 
0 
0 
0 
0 
0 
0 
0 
0 
0 
0 
0 
0 
0 
0 
0 
0 
0 
0 
0 
0 
0 
0 
0 
0 
0 
0 
0 
0 
0 
0 
0 
0 
0 
0 
0 
0 
0 
0 
0 
0 
0 
0 
0 
0 
0 
0 
0 
0 
0 
0 
0 
0 
0 
0 
0 
0 
0 
0 
0 
0 
0 
0 
0 
0 
0 
0 
0 
0 
0 
0 
0 
0 
0 
0 
0 
0 
0 
0 
0 
0 
0 
0 
0 
0 
0 
0 
0 
0 
0 
0 
0 
0 
0 
0 
0 
0 
0 
0 
0 
0 
0 
0 
0 
0 
0 
0 
0 
0 
0 
0 
0 
0 
0 
0 
0 
0 
0 
0 
0 
0 
0 
0 
0 
0 
0 
0 
0 
0 
0 
0 
0 
0 
0 
0 
0 
0 
0 
0 
0 
0 
0 
0 
0 
0 
0 
0 
0 
0 
0 
0 
0 
0 
0 
0 
0 
0 
0 
0 
0 
0 
0 
0 
0 
0 
0 
0 
0 
0 
0 
0 
0 
0 
0 
0 
0 
0 
0 
0 
0 
0 
0 
0 
0 
0 
0 
0 
0 
0 
0 
0 
0 
0 
0 
0 
0 
0 
0 
0 
0 
0 
0 
0 
0 
0 
0 
0 
0 
0 
0 
0 
0 
0 
0 
0 
0 
0 
0 
0 
0 
0 
0 
0 
0 
0 
0 
0 
0 
0 
0 
0 
0 
0 
0 
0 
0 
0 
0 
0 
0 
0 
0 
0 
0 
0 
0 
0 
0 
0 
0 
0 
0 
0 
0 
0 
0 
0 
0 
0 
0 
0 
0 
0 
0 
0 
0 
0 
0 
0 
0 
0 
0 
0 
0 
0 
0 
0 
0 
0 
0 
0 
0 
0 
0 
0 
0 
0 
0 
0 
0 
0 
0 
0 
0 
0 
0 
0 
0 
0 
0 
0 
0 
0 
0 
0 
0 
0 
0 
0 
0 
0 
0 
0 
0 
0 
0 
0 
0 
0 
0 
0 
0 
0 
0 
0 
0 
0 
0 
0 
0 
0 
0 
0 
0 
0 
0 
0 
0 
0 
0 
0 
0 
0 
0 
0 
0 
0 
0 
0 
0 
0 
0 
0 
0 
0 
0 
0 
0 
0 
0 
0 
0 
0 
0 
0 
0 
0 
0 
0 
0 
0 
0 
0 
0 
0 
0 
0 
0 
0 
0 
0 
0 
0 
0 
0 
0 
0 
0 
0 
0 
0 
0 
0 
0 
0 
0 
0 
0 
0 
0 
0 
0 
0 
0 
0 
0 
0 
0 
0 
0 
0 
0 
0 
0 
0 
0 
0 
0 
0 
0 
0 
0 
0 
0 
0 
0 
0 
0 
0 
0 
0 
0 
0 
0 
0 
0 
0 
0 
0 
0 
0 
0 
0 
0 
0 
0 
0 
0 
0 
0 
0 
0 
0 
0 
0 
0 
0 
0 
0 
0 
0 
0 
0 
0 
0 
0 
0 
0 
0 
0 
0 
0 
0 
0 
0 
0 
0 
0 
0 
0 
0 
0 
0 
0 
0 
0 
0 
0 
0 
0 
0 
0 
0 
0 
0 
0 
0 
0 
0 
0 
0 
0 
0 
0 
0 
0 
0 
0 
0 
0 
0 
0 
0 
0 
0 
0 
0 
0 
0 
0 
0 
0 
0 
0 
0 
0 
0 
0 
0 
0 
0 
0 
0 
0 
0 
0 
0 
0 
0 
0 
0 
0 
0 
0 
0 
0 
0 
0 
0 
0 
0 
0 
0 
0 
0 
0 
0 
0 
0 
0 
0 
0 
0 
0 
0 
0 
0 
0 
0 
0 
0 
0 
0 
0 
0 
0 
0 
0 
0 
0 
0 
0 
0 
0 
0 
0 
0 
0 
0 
0 
0 
0 
0 
0 
0 
0 
0 
0 
0 
0 
0 
0 
0 
0 
0 
0 
0 
0 
0 
0 
0 
0 
0 
0 
0 
0 
0 
0 
0 
0 
0 
0 
0 
0 
0 
0 
0 
0 
0 
0 
0 
0 
0 
0 
0 
0 
0 
0 
0 
0 
0 
0 
0 
0 
0 
0 
0 
0 
0 
0 
0 
0 
0 
0 
0 
0 
0 
0 
0 
0 
0 
0 
0 
0 
0 
0 
0 
0 
0 
0 
0 
0 
0 
0 
0 
0 
0 
0 
0 
0 
0 
0 
0 
0 
0 
0 
0 
0 
0 
0 
0 
0 
0 
0 
0 
0 
0 
0 
0 
0 
0 
0 
0 
0 
0 
0 
0 
0 
0 
0 
0 
0 
0 
0 
0 
0 
0 
0 
0 
0 
0 
0 
0 
0 
0 
0 
0 
0 
0 
0 
0 
0 
0 
0 
0 
0 
0 
0 
0 
0 
0 
0 
0 
0 
0 
0 
0 
0 
0 
0 
0 
0 
0 
0 
0 
0 
0 
0 
0 
0 
0 
0 
0 
0 
0 
0 
0 
0 
0 
0 
0 
0 
0 
0 
0 
0 
0 
0 
0 
0 
0 
0 
0 
0 
0 
0 
0 
0 
0 
0 
0 
0 
0 
0.5017425544 
0.5095108006 
0.5188566022 
0.4948263789 
0.5024997036 
0.5329276868 
0.5367222313 
0.5287637092 
0.5212024106 
0.5316438797 
0.5146954292 
0.5214950242 
0.5223135619 
0.5096342316 
0.4923527607 
0.5242431136 
0.3006728573 
0.5034191642 
0.4989122207 
0.5072790325 
0.4300496196 
0.4979750538 
0.4989272077 
0.488533077 
0.4779593824 
0.5109898602 
0.5164655953 
0.5161735484 
0.4906473819 
0.4997521821 
0.4868943596 
0.4824635321 
0.488905201 
0.4274231343 
0.3532608415 
0.3945923843 
0.3375954429 
0.3663156166 
0.3483191578 
0.4033970846 
0.3479992174 
0.5401551896 
0.5390188343 
0.5277379792 
0.315286476 
0.4365819839 
0.4141674206 
0.4161711723 
0.5183360715 
0.4124623177 
0.4323676403 
0.4522617747 
0.4454405984 
0.4219818383 
0.4519364024 
0.4441522622 
0.4243058972 
0.4591274892 
0.4244216735 
0.4235142948 
0.3792737773 
0.4185585672 
0.4187333013 
0.4167729585 
0.3742772974 
0.371183155 
0.5034586964 
0.498178669 
0.4838415919 
0.4498532969 
0.501155442 
0.4820461673 
0.4946721593 
0.4732275983 
0.440315976 
0.4577649033 
0.4131909242 
0.4831808607 
0.4488583861 
0.4673204769 
0.4649145519 
0.454992888 
0.5235824966 
0.4926114293 
0.4977259159 
0.5430737927 
0.3368960463 
0.528171166 
0.525336824 
0.5209745446 
0.3205570229 
0.5326028663 
0.5113975441 
0.5367240985 
0.5399317617 
0.5296585442 
0.5348824157 
0.5391366071 
0.5236405073 
0.545072546 
0.5327437161 
0.5433111209 
0.5053970653 
0.5301892134 
0.5111874286 
0.5282691072 
0.5168747155 
0.5300283585 
0.5425628759 
0.5233800443 
0.5137009846 
0.5369403694 
0.4457050405 
0.471384727 
0.51178974 
0.4410908212 
0.4170140352 
0.4185819394 
0.3796216403 
0.4837987111 
0.514172456 
0.4416617323 
0.4596883263 
0.4680954258 
0.4469901666 
0.4129553818 
0.3054261336 
0.4571936816 
0.5088255843 
0.5395929246 
0.5374720936 
0.5491818231 
0.5415235487 
0.5268186595 
0.5269963711 
0.5271598705 
0.5404610571 
0.5384255271 
0.2566610191 
0.5432321476 
0.5539641547 
0.5415761863 
0.5396389111 
0.4785352309 
0.5229010944 
0.4844255792 
0.4455653816 
0.4484311439 
0.4761623614 
0.465017528 
0.5321755476 
0.5251528924 
0.5272959741 
0.5360689791 
0.5370998706 
0.5278859682 
0.5052174972 
0.4834493198 
0.4887474261 
0.5023614981 
0.5001595849 
0.4715122189 
0.4932411069 
0.4534988981 
0.3748948634 
0.4083501162 
0.3218602577 
0.3862878887 
0.4579387954 
0.4492669491 
0.4676384332 
0.4539013849 
0.3363808389 
0.4363787235 
0.4371889029 
0.4244157842 
0.4278367582 
0.5272637353 
0.3834613247 
0.5270362714 
0.5271561984 
0.5165722436 
0.5436273611 
0.5276846406 
0.5301748722 
0.5359288286 
0.5354708113 
0.5437825389 
0.5302947384 
0.5341332542 
0.5281773288 
0.5397295127 
0.5398025371 
0.5429683725 
0.5172646926 
0.5288605938 
0.5355883237 
0.5343725338 
0.5398350488 
0.491064539 
0.487177432 
0.48288924 
0.4727977495 
0.4852588612 
0.4713830354 
0.5403202623 
0.5066090803 
0.509110444 
0.4921774493 
0.507147407 
0.492417101 
0.4769962064 
0.5234624489 
0.4914014842 
0.5022569701 
0.4569518147 
0.4474569778 
0.4479656857 
0.4509888197 
0.3865246628 
0.4484579153 
0.4023836215 
0.3956069538 
0.3841057527 
0.4322508409 
0.358658852 
0.4045977885 
0.3840282949 
0.4230241462 
0.4420359089 
0.4026966986 
0.3135961042 
0.3650970533 
0.3116892998 
0.3080632096 
0.4546692892 
0.4560885533 
0.4447709993 
0.3416409731 
0.4304632239 
0.4385343972 
0.3908251492 
0.4703436231 
0.4363252717 
0.4592169911 
0.4722541081 
0.4257361282 
0.4937361481 
0.5484579428 
0.4102767442 
0.4607194715 
0.462070513 
0.4766331376 
0.5388669471 
0.5318624759 
0.5433801291 
0.542490055 
0.518955955 
0.5235456776 
0.4965143133 
0.4835012177 
0.4896901771 
0.5192085066 
0.3534821837 
0.4741873669 
0.486380975 
0.4948824104 
0.4335150925 
0.5035672244 
0.5051916148 
0.5058588834 
0.5324933592 
0.4983507904 
0.5259362406 
0.5406545558 
0.5282644761 
0.5192892867 
0.519870885 
0.553705565 
0.5375323469 
0.5254332344 
0.5373895087 
0.5376150541 
0.536466563 
0.521587142 
0.5245819963 
0.5348678161 
0.5278547553 
0.5110423952 
0.5211968941 
0.5401797726 
0.5391214772 
0.5344644697 
0.528392528 
0.504299806 
0.5211732264 
0.5259741069 
0.4248908657 
0.4473477324 
0.3854999466 
0.3853906087 
0.398223741 
0.3997116256 
0.4349961686 
0.4521412534 
0.4430839211 
0.4508855153 
0.396006793 
0.388530373 
0.5347719522 
0.5113766916 
0.3878918063 
0.5271368013 
0.4599997099 
0.266748461 
0.4765558904 
0.4787018878 
0.4771424904 
0.3824797696 
0.3969778906 
0.4173375479 
0.4042194262 
0.3391794185 
0.479028146 
0.4748857105 
0.4786512315 
0.4836583863 
0.4405041534 
0.4523021924 
0.4769205464 
0.494161136 
0.4707944655 
0.4613194498 
0.4265558667 
0.5065707583 
0.469951911 
0.4881813454 
0.5220987584 
0.5148588112 
0.4948660908 
0.5233483663 
0.5144022987 
0.5099744037 
0.5204659793 
0.5438766997 
0.5100474639 
0.4951108385 
0.5260437768 
0.508754424 
0.4972275477 
0.4967675422 
0.52385449 
0.5317402118 
0.5417433713 
0.515071691 
0.51449173 
0.5037263397 
0.5366906723 
0.5065123975 
0.3934070166 
0.5020432589 
0.5062303877 
0.4831112845 
0.5332049857 
0.5441906618 
0.5352273001 
0.539056559 
0.5405050224 
0.5291660417 
0.5118494632 
0.5485789408 
0.4399841068 
0.5234681505 
0.514330388 
0.5027125491 
0.5174044332 
0.5249191769 
0.5112106844 
0.5296919107 
0.4864775894 
0.437194855 
0.4713392741 
0.5241789165 
0.5122989649 
0.5253595607 
0.5203524857 
0.542284449 
0.5347693103 
0.5282131835 
0.5410006198 
0.5265840652 
0.5370946618 
0.5232239046 
0.498403948 
0.5281790579 
0.5341770492 
0.5271332023 
0.53290751 
0.5414355702 
0.5179930935 
0.5113679153 
0.5310951615 
0.5242742789 
0.5259489161 
0.5274571425 
0.5131554702 
0.5278786141 
0.5467083637 
0.5350753887 
0.5241779731 
0.5379555409 
0.5370494672 
0.5432154186 
0.4680091993 
0.5313412175 
0.5221490447 
0.5391557881 
0.5346981918 
0.5326557613 
0.5457132818 
0.5438023051 
0.5338585122 
0.5339808573 
0.54453432 
0.5340214963 
0.5329798511 
0.5340140785 
0.5316221101 
0.5392202724 
0.395123497 
0.3602860084 
0.3833865369 
0.3545257361 
0.3543101206 
0.3422266982 
0.4487955456 
0.5091677794 
0.4766411547 
0.4855111231 
0.4465524792 
0.4561340423 
0.4653259631 
0.4376871517 
0.496116496 
0.4554825181 
0.498097081 
0.4831422462 
0.3365326882 
0.3088763478 
0.468216693 
0.5107188033 
0.4671691829 
0.5206169805 
0.3986602173 
0.4996053317 
0.5193924666 
0.4775490108 
0.4521117826 
0.5136130392 
0.2803903869 
0.5088469004 
0.5215644194 
0.5188292083 
0.4900286364 
0.351544153 
0.3949920068 
0.4342627514 
0.4355859147 
0.4444099673 
0.4324896135 
0.4267450144 
0.4685588825 
0.3630288971 
0.4229593431 
0.4116780144 
0.3422067539 
0.4204887268 
0.3605379399 
0.4993493771 
0.4890923576 
0.4918780264 
0.3754720784 
0.493503675 
0.4854551959 
0.4925403331 
0.4876814968 
0.4915625534 
0.4109961873 
0.4555820159 
0.4564604432 
0.3831946107 
0.4724559772 
0.4761549456 
0.4936784861 
0.4864141685 
0.5125992592 
0.517178523 
0.5036190164 
0.5133853786 
0.5258432003 
0.4995552205 
0.5217439174 
0.5102832294 
0.5231661132 
0.5381512485 
0.3731503154 
0.5251220596 
0.5361142677 
0.5115826781 
0.2517268008 
0.5355679198 
0.5424201634 
0.5320386011 
0.5386377746 
0.531096504 
0.3996397138 
0.5201046072 
0.5129819703 
0.4389963702 
0.4310233596 
0.5169422293 
0.3250332269 
0.4683368788 
0.5308961459 
0.4916230096 
0.5141714543 
0.5160888785 
0.5242000952 
0.4105842005 
0.5163550157 
0.5205743004 
0.5204976268 
0.5090365209 
0.5240699087 
0.5388524954 
0.5290943607 
0.5369772146 
0.5378508165 
0.4729958948 
0.5209102506 
0.5350585064 
0.5224187381 
0.462229364 
0.5382291562 
0.5038358323 
0.5311418616 
0.5500153531 
0.542694134 
0.5442115537 
0.5337754994 
0.5446857238 
0.4926458907 
0.4840859652 
0.4974519177 
0.4822672275 
0.4856573156 
0.5080940917 
0.5200732918 
0.5382442572 
0.5464654179 
0.3748695784 
0.3963107318 
0.36617274 
0.2794695629 
0.460665875 
0.3090402542 
0.5288839128 
0.5255956367 
0.5233820974 
0.5235354174 
0.5114198572 
0.53098756 
0.5281470698 
0.5221480167 
0.5231827102 
0.5259057248 
0.3696113282 
0.3890161508 
0.2895407313 
0.3827315339 
0.525641591 
0.3911549823 
0.3158319314 
0.4722227326 
0.441140358 
0.4829676664 
0.4343939039 
0.3861779904 
0.4574789894 
0.480383124 
0.5386669099 
0.5459277387 
0.5368744745 
0.5338867893 
0.532046461 
0.5254369604 
0.5421686998 
0.5295008082 
0.5313597935 
0.5150945276 
0.4923163095 
0.4179870566 
0.3901229278 
0.428107428 
0.363414302 
0.3184590444 
0.3876653421 
0.5498785531 
0.5407506572 
0.5452205843 
0.5414095825 
0.5383028944 
0.5479133017 
0.4879071708 
0.4299139895 
0.533579945 
0.4951078753 
0.5245785929 
0.5264975406 
0.5248788138 
0.337325321 
0.4982573189 
0.4655356201 
0.4652896969 
0.4985816925 
0.5265866886 
0.4922353608 
0.5068882437 
0.5258697184 
0.5222912577 
0.4599453735 
0.5096516374 
0.520134255 
0.5219677852 
0.5103522739 
0.4947606405 
0.4921222975 
0.4895208844 
0.5133685284 
0.5079670984 
0.4945993511 
0.4832086151 
0.5038036611 
0.5308505521 
0.5158843712 
0.4586585745 
0.3680623096 
0.4578197191 
0.4407062821 
0.4677901057 
0.379188447 
0.4581617814 
0.4016301123 
0.3899879739 
0.4506192934 
0.4325479589 
0.3769293113 
0.3918968796 
0.5281017676 
0.5326984022 
0.5390146814 
0.5282905826 
0.53452044 
0.543758385 
0.5145997468 
0.5290837295 
0.5226820844 
0.536130769 
0.5183234828 
0.510110315 
0.538520605 
0.5448382223 
0.5332638977 
0.5310577904 
0.5304432041 
0.5139336704 
0.5208502479 
0.5414807394 
0.4841032336 
0.4634115761 
0.3944490309 
0.4558383214 
0.4214600769 
0.4351529475 
0.5442985779 
0.5374484345 
0.521316738 
0.5182168517 
0.5416003077 
0.5244254439 
0.5405722005 
0.5372791678 
0.5304841563 
0.3520449587 
0.5341845104 
0.4562073568 
0.5166352773 
0.4147283098 
0.3117729345 
0.3202429415 
0.3795635228 
0.3192018769 
0.3318427545 
0.4268579509 
0.5429638328 
0.374536888 
0.5389741367 
0.5247287166 
0.3324158817 
0.4155084871 
0.3911702065 
0.5468801778 
0.5464318375 
0.5446192567 
0.3532223563 
0.5166980622 
0.5055613621 
0.4775310972 
0.4311260644 
0.430646368 
0.4842219806 
0.4730780389 
0.456916589 
0.4649575282 
0.4131101223 
0.4506320551 
0.4553243939 
0.4377640985 
0.2712021476 
0.4143990986 
0.3674042737 
0.487807718 
0.4309993415 
0.4358704003 
0.4603858647 
0.4411977582 
0.4164158495 
0.4424633499 
0.4705294303 
0.4199761199 
0.3994462062 
0.4620557954 
0.3796961085 
0.2987694179 
0.3202428486 
0.3045286846 
0.2914414149 
0.4342785354 
0.4536301027 
0.4522586538 
0.3950420612 
0.5369732574 
0.5370322882 
0.5208415722 
0.5439412405 
0.5203213537 
0.5241359739 
0.5402233911 
0.5097782898 
0.5251729156 
0.354683332 
0.2737241804 
0.3093906121 
0.2929183323 
0.2733097178 
0.4516006059 
0.4846450839 
0.4977860742 
0.4797294396 
0.5140758686 
0.5231898099 
0.4385516907 
0.4951467831 
0.4473388034 
0.3959184887 
0.5165568957 
0.5378789012 
0.5083200301 
0.4996938978 
0.5215154135 
0.5088314605 
0.5156892298 
0.3695362245 
0.542885405 
0.4656413836 
0.4788470003 
0.52943888 
0.4500346414 
0.5110763502 
0.4881173874 
0.4966167112 
0.4937819284 
0.482487013 
0.4841134855 
0.4518971026 
0.5506923427 
0.4745676426 
0.4523848979 
0.4891290904 
0.470502605 
0.5413380184 
0.5054995557 
0.5347011924 
0.5177430462 
0.5432770324 
0.5481478969 
0.5318741514 
0.5361167388 
0.4708649414 
0.4562353946 
0.4653204848 
0.4613785515 
0.4250863877 
0.5075967076 
0.539426572 
0.5390206668 
0.5379554218 
0.5483144185 
0.5286591773 
0.5390004528 
0.5439522078 
0.5435972868 
0.5382470622 
0.5433945432 
0.5298985229 
0.5322554942 
0.5289774991 
0.5338061022 
0.5356704467 
0.5453286275 
0.5470419591 
0.4838407568 
0.5060057743 
0.4886020687 
0.4272674302 
0.4454516072 
0.5351578836 
0.4969702691 
0.4823345447 
0.498959204 
0.4855019995 
0.4787928497 
0.5363898485 
0.5355015418 
0.5475379573 
0.5403730436 
0.5431600559 
0.5390609731 
0.495287795 
0.5404658655 
0.5289095189 
0.5247188411 
0.5398789063 
0.5386344175 
0.5357500275 
0.5343126853 
0.5346933453 
0.5345765358 
0.5439661284 
0.5318492176 
0.5106139122 
0.481103337 
0.4943806089 
0.4921265323 
0.5364146802 
0.396843991 
0.3627829815 
0.4622356548 
0.3836358396 
0.4381195155 
0.4443484225 
0.4437984431 
0.406391936 
0.3324979285 
0.4112135457 
0.3937497053 
0.5101050556 
0.4487774712 
0.4555443031 
0.4010181077 
0.4389306692 
0.4512322896 
0.4562327333 
0.4651803229 
0.4972565608 
0.4912974259 
0.4825227817 
0.5111872579 
0.5049928657 
0.5228805669 
0.5113597925 
0.510107011 
0.5103281191 
0.5217998057 
0.492319866 
0.3474406999 
0.4481864506 
0.4167926524 
0.534867756 
0.3402581368 
0.2886816432 
0.5464354823 
0.3296147058 
0.2714226369 
0.5394469129 
0.5386198502 
0.4926011757 
0.4877747925 
0.4878394683 
0.5107943904 
0.5126899866 
0.5225850917 
0.4730418156 
0.3896300958 
0.4267995328 
0.4521137615 
0.4186195064 
0.4714613703 
0.5071387681 
0.4966726848 
0.3489166186 
0.5075789516 
0.5481867425 
0.4751226514 
0.5284021486 
0.5078066023 
0.5147594066 
0.515266345 
0.5136350967 
0.5286254137 
0.4824836221 
0.5423771327 
0.5305474947 
0.5294166454 
0.545828522 
0.5343170436 
0.3019575965 
0.5416535523 
0.5306644027 
0.5563454579 
0.5420579989 
0.5493041758 
0.5423366296 
0.5372858212 
0.5417293082 
0.5052249964 
0.5314476052 
0.5235850252 
0.5243810072 
0.5319861205 
0.5261846842 
0.5291328233 
0.4812484016 
0.5404906073 
0.53391068 
0.533905624 
0.5225178671 
0.5454133126 
0.5422031347 
0.5408346151 
0.5270121214 
0.5316670984 
0.5248553392 
0.5299527997 
0.5484333763 
0.5371064612 
0.5337702302 
0.5472665344 
0.5514276948 
0.5369165333 
0.3399278357 
0.4128874007 
0.2884516965 
0.3153066483 
0.5219537866 
0.4663871335 
0.4827971241 
0.4857693419 
0.4956828131 
0.4894787969 
0.4120729258 
0.5130866951 
0.5431503751 
0.5345017151 
0.5401939565 
0.5390817593 
0.5318565664 
0.5463027132 
0.5467480106 
0.5414481833 
0.539785896 
0.5444790467 
0.5184787008 
0.5333324994 
0.4284633937 
0.3845892552 
0.4471300527 
0.4017659023 
0.4192726404 
0.3951288164 
0.4600557564 
0.3204831676 
0.3277002679 
0.4157271671 
0.3071092125 
0.2941106566 
0.281477314 
0.4500634253 
0.4712700913 
0.3583408691 
0.396337058 
0.4301412874 
0.4321214982 
0.4250051442 
0.3033969031 
0.4538925367 
0.3145410687 
0.2948494305 
0.2875874606 
0.2724837591 
0.5260129765 
0.5405607354 
0.5357311747 
0.5308169645 
0.5309945158 
0.4236280398 
0.4110250026 
0.4176797648 
0.4661485967 
0.4188844876 
0.5301214821 
0.4280674625 
0.3594327588 
0.4356301721 
0.4542640512 
0.4630353473 
0.4360242434 
0.4077220376 
0.4430886231 
0.3940107439 
0.3544669236 
0.3008804381 
0.4574133978 
0.3806650022 
0.3859895292 
0.3825465119 
0.3211057275 
0.3225964837 
0.3701551333 
0.3995307238 
0.2839634863 
0.3572522797 
0.5337470222 
0.4348994474 
0.4072896677 
0.326966841 
0.4358155284 
0.4574378511 
0.4073570386 
0.5428686148 
0.5378570811 
0.5343449728 
0.5311892291 
0.5473120091 
0.5360700006 
0.5400435934 
0.5165353801 
0.5321476393 
0.526914849 
0.5210356871 
0.530189673 
0.5217625444 
0.5308294383 
0.5108452413 
0.5203044341 
0.3350319381 
0.3343264338 
0.3670129181 
0.283685029 
0.5336322833 
0.5305162921 
0.5293346921 
0.5204047913 
0.5152054616 
0.4939834953 
0.5268947173 
0.5310829621 
0.5016361816 
0.5300061196 
0.3111675987 
0.3442225249 
0.3948992032 
0.3115346297 
0.4460920539 
0.438096331 
0.4031638379 
0.4670934563 
0.4850811225 
0.4198152253 
0.5256109657 
0.4190309549 
0.4817728773 
0.460476781 
0.5322552927 
0.496420386 
0.4736709939 
0.4678455419 
0.4987174879 
0.4221223665 
0.5194731913 
0.4980954045 
0.5256151117 
0.5092465182 
0.503418952 
0.4984826686 
0.5440622697 
0.5348082737 
0.512226388 
0.5223899096 
0.5100424798 
0.5466380609 
0.4563310833 
0.4672989532 
0.4878476392 
0.494775795 
0.5103815093 
0.5308176553 
0.5229379299 
0.5378002253 
0.4887314906 
0.5059920438 
0.51317647 
0.4909521367 
0.5135044774 
0.5385886062 
0.5480134421 
0.5459520142 
0.5511018397 
0.5445823047 
0.541281296 
0.535627215 
0.5480185364 
0.5387368913 
0.523649116 
0.4815055376 
0.4409328463 
0.5314706061 
0.2763599938 
0.2937462132 
0.3945444857 
0.4030135444 
0.4094984327 
0.4095468001 
0.3059920347 
0.443915291 
0.2798129163 
0.3228527418 
0.3481531543 
0.2898521734 
0.5517412158 
0.3885301889 
0.4224458396 
0.5371655782 
0.5260865138 
0.4925152446 
0.5378119237 
0.523411273 
0.5227669298 
0.4292555016 
0.4492042201 
0.450536642 
0.4470617192 
0.4535236583 
0.4993073842 
0.3869147203 