# vtk DataFile Version 3.0
MOAB 4.1.0pre
ASCII
DATASET UNSTRUCTURED_GRID
POINTS 1225 double
0 -0.5 0.5
0 0.5 0.5
0 -0.3333333333 0.5
0 -0.1666666667 0.5
0 0 0.5
0 0.1666666667 0.5
0 0.3333333333 0.5
0 0.5 -0.5
0 0.5 0.3333333333
0 0.5 0.1666666667
0 0.5 0
0 0.5 -0.1666666667
0 0.5 -0.3333333333
0 -0.5 -0.5
0 0.3333333333 -0.5
0 0.1666666667 -0.5
0 0 -0.5
0 -0.1666666667 -0.5
0 -0.3333333333 -0.5
0 -0.5 -0.3333333333
0 -0.5 -0.1666666667
0 -0.5 0
0 -0.5 0.1666666667
0 -0.5 0.3333333333
0 -0.3333333333 0.3333333333
0 -0.1666666667 0.3333333333
0 -6.938893904e-18 0.3333333333
0 0.1666666667 0.3333333333
0 0.3333333333 0.3333333333
0 -0.3333333333 0.1666666667
0 -0.1666666667 0.1666666667
0 -1.387778781e-17 0.1666666667
0 0.1666666667 0.1666666667
0 0.3333333333 0.1666666667
0 -0.3333333333 0
0 -0.1666666667 0
0 0 0
0 0.1666666667 0
0 0.3333333333 0
0 -0.3333333333 -0.1666666667
0 -0.1666666667 -0.1666666667
0 0 -0.1666666667
0 0.1666666667 -0.1666666667
0 0.3333333333 -0.1666666667
0 -0.3333333333 -0.3333333333
0 -0.1666666667 -0.3333333333
0 0 -0.3333333333
0 0.1666666667 -0.3333333333
0 0.3333333333 -0.3333333333
5 -0.5 -0.5
0.2083333333 -0.5 -0.5
0.4166666667 -0.5 -0.5
0.625 -0.5 -0.5
0.8333333333 -0.5 -0.5
1.041666667 -0.5 -0.5
1.25 -0.5 -0.5
1.458333333 -0.5 -0.5
1.666666667 -0.5 -0.5
1.875 -0.5 -0.5
2.083333333 -0.5 -0.5
2.291666667 -0.5 -0.5
2.5 -0.5 -0.5
2.708333333 -0.5 -0.5
2.916666667 -0.5 -0.5
3.125 -0.5 -0.5
3.333333333 -0.5 -0.5
3.541666667 -0.5 -0.5
3.75 -0.5 -0.5
3.958333333 -0.5 -0.5
4.166666667 -0.5 -0.5
4.375 -0.5 -0.5
4.583333333 -0.5 -0.5
4.791666667 -0.5 -0.5
5 -0.5 0.5
5 -0.5 0.3333333333
5 -0.5 0.1666666667
5 -0.5 0
5 -0.5 -0.1666666667
5 -0.5 -0.3333333333
4.791666667 -0.5 0.5
4.583333333 -0.5 0.5
4.375 -0.5 0.5
4.166666667 -0.5 0.5
3.958333333 -0.5 0.5
3.75 -0.5 0.5
3.541666667 -0.5 0.5
3.333333333 -0.5 0.5
3.125 -0.5 0.5
2.916666667 -0.5 0.5
2.708333333 -0.5 0.5
2.5 -0.5 0.5
2.291666667 -0.5 0.5
2.083333333 -0.5 0.5
1.875 -0.5 0.5
1.666666667 -0.5 0.5
1.458333333 -0.5 0.5
1.25 -0.5 0.5
1.041666667 -0.5 0.5
0.8333333333 -0.5 0.5
0.625 -0.5 0.5
0.4166666667 -0.5 0.5
0.2083333333 -0.5 0.5
0.2083333333 -0.5 -0.3333333333
0.4166666667 -0.5 -0.3333333333
0.625 -0.5 -0.3333333333
0.8333333333 -0.5 -0.3333333333
1.041666667 -0.5 -0.3333333333
1.25 -0.5 -0.3333333333
1.458333333 -0.5 -0.3333333333
1.666666667 -0.5 -0.3333333333
1.875 -0.5 -0.3333333333
2.083333333 -0.5 -0.3333333333
2.291666667 -0.5 -0.3333333333
2.5 -0.5 -0.3333333333
2.708333333 -0.5 -0.3333333333
2.916666667 -0.5 -0.3333333333
3.125 -0.5 -0.3333333333
3.333333333 -0.5 -0.3333333333
3.541666667 -0.5 -0.3333333333
3.75 -0.5 -0.3333333333
3.958333333 -0.5 -0.3333333333
4.166666667 -0.5 -0.3333333333
4.375 -0.5 -0.3333333333
4.583333333 -0.5 -0.3333333333
4.791666667 -0.5 -0.3333333333
0.2083333333 -0.5 -0.1666666667
0.4166666667 -0.5 -0.1666666667
0.625 -0.5 -0.1666666667
0.8333333333 -0.5 -0.1666666667
1.041666667 -0.5 -0.1666666667
1.25 -0.5 -0.1666666667
1.458333333 -0.5 -0.1666666667
1.666666667 -0.5 -0.1666666667
1.875 -0.5 -0.1666666667
2.083333333 -0.5 -0.1666666667
2.291666667 -0.5 -0.1666666667
2.5 -0.5 -0.1666666667
2.708333333 -0.5 -0.1666666667
2.916666667 -0.5 -0.1666666667
3.125 -0.5 -0.1666666667
3.333333333 -0.5 -0.1666666667
3.541666667 -0.5 -0.1666666667
3.75 -0.5 -0.1666666667
3.958333333 -0.5 -0.1666666667
4.166666667 -0.5 -0.1666666667
4.375 -0.5 -0.1666666667
4.583333333 -0.5 -0.1666666667
4.791666667 -0.5 -0.1666666667
0.2083333333 -0.5 0
0.4166666667 -0.5 0
0.625 -0.5 0
0.8333333333 -0.5 0
1.041666667 -0.5 0
1.25 -0.5 0
1.458333333 -0.5 0
1.666666667 -0.5 0
1.875 -0.5 0
2.083333333 -0.5 0
2.291666667 -0.5 0
2.5 -0.5 0
2.708333333 -0.5 0
2.916666667 -0.5 0
3.125 -0.5 0
3.333333333 -0.5 0
3.541666667 -0.5 0
3.75 -0.5 0
3.958333333 -0.5 0
4.166666667 -0.5 0
4.375 -0.5 0
4.583333333 -0.5 0
4.791666667 -0.5 0
0.2083333333 -0.5 0.1666666667
0.4166666667 -0.5 0.1666666667
0.625 -0.5 0.1666666667
0.8333333333 -0.5 0.1666666667
1.041666667 -0.5 0.1666666667
1.25 -0.5 0.1666666667
1.458333333 -0.5 0.1666666667
1.666666667 -0.5 0.1666666667
1.875 -0.5 0.1666666667
2.083333333 -0.5 0.1666666667
2.291666667 -0.5 0.1666666667
2.5 -0.5 0.1666666667
2.708333333 -0.5 0.1666666667
2.916666667 -0.5 0.1666666667
3.125 -0.5 0.1666666667
3.333333333 -0.5 0.1666666667
3.541666667 -0.5 0.1666666667
3.75 -0.5 0.1666666667
3.958333333 -0.5 0.1666666667
4.166666667 -0.5 0.1666666667
4.375 -0.5 0.1666666667
4.583333333 -0.5 0.1666666667
4.791666667 -0.5 0.1666666667
0.2083333333 -0.5 0.3333333333
0.4166666667 -0.5 0.3333333333
0.625 -0.5 0.3333333333
0.8333333333 -0.5 0.3333333333
1.041666667 -0.5 0.3333333333
1.25 -0.5 0.3333333333
1.458333333 -0.5 0.3333333333
1.666666667 -0.5 0.3333333333
1.875 -0.5 0.3333333333
2.083333333 -0.5 0.3333333333
2.291666667 -0.5 0.3333333333
2.5 -0.5 0.3333333333
2.708333333 -0.5 0.3333333333
2.916666667 -0.5 0.3333333333
3.125 -0.5 0.3333333333
3.333333333 -0.5 0.3333333333
3.541666667 -0.5 0.3333333333
3.75 -0.5 0.3333333333
3.958333333 -0.5 0.3333333333
4.166666667 -0.5 0.3333333333
4.375 -0.5 0.3333333333
4.583333333 -0.5 0.3333333333
4.791666667 -0.5 0.3333333333
5 0.5 -0.5
4.791666667 0.5 -0.5
4.583333333 0.5 -0.5
4.375 0.5 -0.5
4.166666667 0.5 -0.5
3.958333333 0.5 -0.5
3.75 0.5 -0.5
3.541666667 0.5 -0.5
3.333333333 0.5 -0.5
3.125 0.5 -0.5
2.916666667 0.5 -0.5
2.708333333 0.5 -0.5
2.5 0.5 -0.5
2.291666667 0.5 -0.5
2.083333333 0.5 -0.5
1.875 0.5 -0.5
1.666666667 0.5 -0.5
1.458333333 0.5 -0.5
1.25 0.5 -0.5
1.041666667 0.5 -0.5
0.8333333333 0.5 -0.5
0.625 0.5 -0.5
0.4166666667 0.5 -0.5
0.2083333333 0.5 -0.5
5 -0.3333333333 -0.5
5 -0.1666666667 -0.5
5 0 -0.5
5 0.1666666667 -0.5
5 0.3333333333 -0.5
0.2083333333 0.3333333333 -0.5
0.4166666667 0.3333333333 -0.5
0.625 0.3333333333 -0.5
0.8333333333 0.3333333333 -0.5
1.041666667 0.3333333333 -0.5
1.25 0.3333333333 -0.5
1.458333333 0.3333333333 -0.5
1.666666667 0.3333333333 -0.5
1.875 0.3333333333 -0.5
2.083333333 0.3333333333 -0.5
2.291666667 0.3333333333 -0.5
2.5 0.3333333333 -0.5
2.708333333 0.3333333333 -0.5
2.916666667 0.3333333333 -0.5
3.125 0.3333333333 -0.5
3.333333333 0.3333333333 -0.5
3.541666667 0.3333333333 -0.5
3.75 0.3333333333 -0.5
3.958333333 0.3333333333 -0.5
4.166666667 0.3333333333 -0.5
4.375 0.3333333333 -0.5
4.583333333 0.3333333333 -0.5
4.791666667 0.3333333333 -0.5
0.2083333333 0.1666666667 -0.5
0.4166666667 0.1666666667 -0.5
0.625 0.1666666667 -0.5
0.8333333333 0.1666666667 -0.5
1.041666667 0.1666666667 -0.5
1.25 0.1666666667 -0.5
1.458333333 0.1666666667 -0.5
1.666666667 0.1666666667 -0.5
1.875 0.1666666667 -0.5
2.083333333 0.1666666667 -0.5
2.291666667 0.1666666667 -0.5
2.5 0.1666666667 -0.5
2.708333333 0.1666666667 -0.5
2.916666667 0.1666666667 -0.5
3.125 0.1666666667 -0.5
3.333333333 0.1666666667 -0.5
3.541666667 0.1666666667 -0.5
3.75 0.1666666667 -0.5
3.958333333 0.1666666667 -0.5
4.166666667 0.1666666667 -0.5
4.375 0.1666666667 -0.5
4.583333333 0.1666666667 -0.5
4.791666667 0.1666666667 -0.5
0.2083333333 0 -0.5
0.4166666667 0 -0.5
0.625 0 -0.5
0.8333333333 0 -0.5
1.041666667 0 -0.5
1.25 0 -0.5
1.458333333 0 -0.5
1.666666667 0 -0.5
1.875 0 -0.5
2.083333333 0 -0.5
2.291666667 0 -0.5
2.5 0 -0.5
2.708333333 0 -0.5
2.916666667 0 -0.5
3.125 0 -0.5
3.333333333 0 -0.5
3.541666667 0 -0.5
3.75 0 -0.5
3.958333333 0 -0.5
4.166666667 0 -0.5
4.375 0 -0.5
4.583333333 0 -0.5
4.791666667 0 -0.5
0.2083333333 -0.1666666667 -0.5
0.4166666667 -0.1666666667 -0.5
0.625 -0.1666666667 -0.5
0.8333333333 -0.1666666667 -0.5
1.041666667 -0.1666666667 -0.5
1.25 -0.1666666667 -0.5
1.458333333 -0.1666666667 -0.5
1.666666667 -0.1666666667 -0.5
1.875 -0.1666666667 -0.5
2.083333333 -0.1666666667 -0.5
2.291666667 -0.1666666667 -0.5
2.5 -0.1666666667 -0.5
2.708333333 -0.1666666667 -0.5
2.916666667 -0.1666666667 -0.5
3.125 -0.1666666667 -0.5
3.333333333 -0.1666666667 -0.5
3.541666667 -0.1666666667 -0.5
3.75 -0.1666666667 -0.5
3.958333333 -0.1666666667 -0.5
4.166666667 -0.1666666667 -0.5
4.375 -0.1666666667 -0.5
4.583333333 -0.1666666667 -0.5
4.791666667 -0.1666666667 -0.5
0.2083333333 -0.3333333333 -0.5
0.4166666667 -0.3333333333 -0.5
0.625 -0.3333333333 -0.5
0.8333333333 -0.3333333333 -0.5
1.041666667 -0.3333333333 -0.5
1.25 -0.3333333333 -0.5
1.458333333 -0.3333333333 -0.5
1.666666667 -0.3333333333 -0.5
1.875 -0.3333333333 -0.5
2.083333333 -0.3333333333 -0.5
2.291666667 -0.3333333333 -0.5
2.5 -0.3333333333 -0.5
2.708333333 -0.3333333333 -0.5
2.916666667 -0.3333333333 -0.5
3.125 -0.3333333333 -0.5
3.333333333 -0.3333333333 -0.5
3.541666667 -0.3333333333 -0.5
3.75 -0.3333333333 -0.5
3.958333333 -0.3333333333 -0.5
4.166666667 -0.3333333333 -0.5
4.375 -0.3333333333 -0.5
4.583333333 -0.3333333333 -0.5
4.791666667 -0.3333333333 -0.5
5 0.5 0.5
5 0.3333333333 0.5
5 0.1666666667 0.5
5 0 0.5
5 -0.1666666667 0.5
5 -0.3333333333 0.5
5 0.5 -0.3333333333
5 0.5 -0.1666666667
5 0.5 0
5 0.5 0.1666666667
5 0.5 0.3333333333
5 0.3333333333 0.3333333333
5 0.1666666667 0.3333333333
5 6.938893904e-18 0.3333333333
5 -0.1666666667 0.3333333333
5 -0.3333333333 0.3333333333
5 0.3333333333 0.1666666667
5 0.1666666667 0.1666666667
5 1.387778781e-17 0.1666666667
5 -0.1666666667 0.1666666667
5 -0.3333333333 0.1666666667
5 0.3333333333 0
5 0.1666666667 0
5 0 0
5 -0.1666666667 0
5 -0.3333333333 0
5 0.3333333333 -0.1666666667
5 0.1666666667 -0.1666666667
5 0 -0.1666666667
5 -0.1666666667 -0.1666666667
5 -0.3333333333 -0.1666666667
5 0.3333333333 -0.3333333333
5 0.1666666667 -0.3333333333
5 0 -0.3333333333
5 -0.1666666667 -0.3333333333
5 -0.3333333333 -0.3333333333
0.2083333333 0.5 0.5
0.4166666667 0.5 0.5
0.625 0.5 0.5
0.8333333333 0.5 0.5
1.041666667 0.5 0.5
1.25 0.5 0.5
1.458333333 0.5 0.5
1.666666667 0.5 0.5
1.875 0.5 0.5
2.083333333 0.5 0.5
2.291666667 0.5 0.5
2.5 0.5 0.5
2.708333333 0.5 0.5
2.916666667 0.5 0.5
3.125 0.5 0.5
3.333333333 0.5 0.5
3.541666667 0.5 0.5
3.75 0.5 0.5
3.958333333 0.5 0.5
4.166666667 0.5 0.5
4.375 0.5 0.5
4.583333333 0.5 0.5
4.791666667 0.5 0.5
[...]
POINT_DATA 1225
SCALARS KDE_TALLY_TAG double 1
LOOKUP_TABLE default
2.931209024 
2.985951564 
2.945616088 
3.100334677 
3.069573811 
3.035816051 
3.128080997 
2.957463514 
3.115636111 
2.93406212 
3.005217749 
2.972580709 
2.998068852 
3.146627748 
3.023983925 
3.001913311 
3.071192753 
2.973602807 
2.879523003 
2.976785334 
3.016508044 
3.010246861 
3.044916516 
2.983274566 
3.126281891 
3.025246725 
2.966753537 
3.090957216 
3.04487264 
2.929567769 
3.090484722 
3.125597498 
2.929209531 
2.95464112 
2.942803961 
3.071655006 
3.129073132 
2.990764379 
3.032924943 
3.111114638 
3.043008606 
3.03530799 
2.975192461 
2.917257968 
3.12567132 
3.044605256 
3.108535011 
3.059666709 
3.047432309 
2.128302331 
3.119847227 
3.010233352 
2.953435348 
2.94244508 
2.891660729 
2.878443957 
2.742627917 
2.691625522 
2.569042828 
2.598976165 
2.559905828 
2.564245922 
2.480382969 
2.381909705 
2.328985171 
2.412673141 
2.328086098 
2.308586105 
2.157012299 
2.331294199 
2.3121966 
2.212343811 
2.214323217 
2.187553861 
2.117140606 
2.209357515 
2.183587372 
2.201522688 
2.143106392 
2.223855734 
2.16588155 
2.149379796 
2.256702874 
2.254117985 
2.294205783 
2.349768639 
2.311473953 
2.371770313 
2.346227213 
2.490230992 
2.431647992 
2.53788971 
2.589223687 
2.711146852 
2.762792847 
2.709570541 
2.729054281 
2.899480562 
2.885691407 
2.991043138 
2.958104397 
2.938165197 
3.035592719 
3.048939912 
2.974155028 
2.851793382 
2.795529907 
2.978420641 
2.676584205 
2.629190345 
2.63774242 
2.697986781 
2.542534815 
2.520578815 
2.506504956 
2.326551359 
2.398178955 
2.307706474 
2.263428571 
2.402041686 
2.247402021 
2.227925586 
2.128503629 
2.117842965 
2.179084614 
3.029305949 
3.029204137 
2.958245094 
2.873193339 
2.730851159 
2.812658783 
2.811382481 
2.705233484 
2.597759091 
2.565383479 
2.599463951 
2.496661105 
2.557396587 
2.376564404 
2.420172105 
2.326531852 
2.349922397 
2.21305523 
2.222907407 
2.192986432 
2.155425661 
2.28164795 
2.171704319 
2.98941141 
3.016920941 
2.906847202 
2.797787274 
2.883173162 
2.722134999 
2.681401196 
2.634992742 
2.658711161 
2.499321741 
2.449759038 
2.446365414 
2.481439181 
2.350457859 
2.332794752 
2.25568651 
2.318831946 
2.172408511 
2.216615853 
2.177072678 
2.153254246 
2.117894397 
2.171133749 
2.972009492 
2.972668419 
2.991473126 
2.837377202 
2.815570335 
2.770045988 
2.624469243 
2.815233378 
2.597600159 
2.514864647 
2.589783235 
2.49425401 
2.501561798 
2.419505884 
2.359704946 
2.414456761 
2.247299171 
2.289481725 
2.265293728 
2.255086851 
2.252864147 
2.216360684 
2.178753944 
3.003198948 
3.005572915 
2.709869593 
2.904045284 
2.845894538 
2.706362095 
2.796360743 
2.622475597 
2.506618829 
2.54620111 
2.587697103 
2.48270411 
2.429773898 
2.405025343 
2.358692055 
2.320767196 
2.291680946 
2.254686633 
2.178549744 
2.155884352 
2.299086039 
2.047314727 
2.128974796 
2.211231598 
2.272636551 
2.180610857 
2.138546291 
2.201776757 
2.280468112 
2.243473493 
2.315150646 
2.373761032 
2.303394314 
2.401802473 
2.501934331 
2.507292389 
2.627146352 
2.613108173 
2.665797595 
2.646195111 
2.704564822 
2.749882091 
2.749419326 
2.866271844 
2.938886331 
3.03120779 
3.053712089 
2.185501024 
2.196499887 
2.180214607 
2.117464124 
2.165254281 
2.930853189 
2.867675265 
2.853113764 
2.98655475 
2.84790648 
2.779784914 
2.816117195 
2.683913767 
2.635802613 
2.605033771 
2.535177355 
2.455075313 
2.417920141 
2.439341921 
2.457049527 
2.302195147 
2.228395054 
2.194740332 
2.248670257 
2.109298689 
2.178802244 
2.185021855 
2.165435389 
2.880940947 
2.978964737 
2.916691423 
2.905822392 
2.880495539 
2.853372538 
2.673564124 
2.711941529 
2.684461567 
2.559331898 
2.59336397 
2.420410336 
2.458628168 
2.418894414 
2.368655398 
2.391660943 
2.230661158 
2.290643033 
2.186527685 
2.132254366 
2.121847774 
2.193269293 
2.205241399 
3.023123057 
2.913272284 
2.938258516 
2.915275861 
2.855237679 
2.862258568 
2.787206051 
2.76930466 
2.722339858 
2.566786193 
2.595517396 
2.513986693 
2.463657227 
2.400707837 
2.379653739 
2.232380719 
2.200107037 
2.237099801 
2.160574902 
2.143062292 
2.216182581 
2.201666716 
2.075673178 
3.045164776 
3.011621837 
2.913849801 
2.870915508 
2.875654053 
2.778085152 
2.732744372 
2.615320802 
2.707433567 
2.58408023 
2.545851616 
2.418020298 
2.468541832 
2.315330753 
2.422832963 
2.326727823 
2.283859147 
2.204906849 
2.300611245 
2.253564706 
2.125976747 
2.141857477 
2.082988435 
3.022285987 
2.952126804 
2.921194898 
3.0008582 
2.799364871 
2.82304796 
2.709298148 
2.673830647 
2.666853114 
2.500935452 
2.473738866 
2.407709419 
2.385171523 
2.413863495 
2.40352128 
2.28022109 
2.263330128 
2.319461096 
2.23508847 
2.139587117 
2.192359652 
2.134257876 
2.15415483 
2.23852734 
2.184404742 
2.136722245 
2.154081797 
2.087729696 
2.19822944 
2.077917849 
2.194127632 
2.052813283 
2.183335473 
2.088935856 
2.099554481 
2.138954466 
2.107308676 
2.253641729 
2.128790166 
2.098176229 
2.193417685 
2.016352815 
2.133887633 
2.124867335 
2.144231828 
2.215780636 
2.177293019 
2.206064336 
2.173068852 
2.096850901 
2.167859983 
2.188443917 
2.133485853 
2.122479034 
2.130429803 
2.133778121 
2.137097402 
2.1738654 
2.170333764 
3.083883333 
2.861224301 
2.898314224 
2.861425079 
2.82258838 
2.76006371 
2.712068049 
2.724722622 
2.653082583 
2.477146055 
2.54468289 
2.438936698 
2.454518292 
2.374860887 
2.26377813 
2.324650507 
2.301996703 
2.26379134 
2.20521081 
2.249194719 
2.191469343 
2.151222028 
2.173615235 
2.936134324 
2.989214029 
2.961524027 
2.939313031 
2.95836211 
2.812839792 
2.816386876 
2.652469394 
2.581289459 
2.563281098 
2.598454501 
2.386427624 
2.53113717 
2.510009397 
2.367531121 
2.353373996 
2.225634052 
2.318744816 
2.218544659 
2.205403951 
2.164791965 
2.181717023 
2.149604317 
2.885934804 
2.988059343 
3.080521347 
2.864538813 
2.873304462 
2.782645921 
2.72800724 
2.617498854 
2.596600259 
2.508896619 
2.554303055 
2.331681272 
2.489195018 
2.292224536 
2.361612533 
2.342807702 
2.179972937 
2.350376028 
2.224056466 
2.213755624 
2.241617565 
2.169059188 
2.113615898 
3.012357173 
2.900334941 
3.007731407 
2.892648211 
2.925114598 
2.797106611 
2.724707616 
2.734834962 
2.724602855 
2.639682911 
2.499225878 
2.433409165 
2.426492052 
2.405148465 
2.413951894 
2.270234817 
2.298893585 
2.141139391 
2.219438216 
2.117126846 
2.287646893 
2.147470136 
2.16460025 
3.070919756 
2.91686119 
2.85405996 
2.804230934 
2.745867566 
2.718565313 
2.697750098 
2.733703533 
2.69554344 
2.654536753 
2.590600963 
2.524338765 
2.440508197 
2.416421709 
2.333804344 
2.323117372 
2.404538765 
2.339555774 
2.19600762 
2.233418449 
2.281155961 
2.156096503 
2.223276782 
2.963403746 
2.97459802 
2.877056377 
2.859918811 
2.969265071 
2.611942829 
2.730243238 
2.665664997 
2.490017145 
2.62396613 
2.562085153 
2.590725708 
2.364826076 
2.422058158 
2.247324049 
2.26749451 
2.20460319 
2.352217935 
2.225292562 
2.226321762 
2.211999856 
2.251912825 
2.112093333 
2.945000898 
2.987827243 
2.957099683 
2.875261941 
2.779027653 
2.813174239 
2.741252212 
2.689432507 
2.710301368 
2.546938761 
2.499176674 
2.425296028 
2.434443071 
2.421814518 
2.399395043 
2.287944965 
2.285889644 
2.28823432 
2.256191167 
2.181262329 
2.104984972 
2.20605604 
2.240143791 
3.02874559 
2.896986765 
2.888287629 
2.937934913 
2.926163874 
2.831607907 
2.691300117 
2.7306446 
2.581791181 
2.587831808 
2.530465772 
2.497590876 
2.481399698 
2.453689002 
2.325132659 
2.265022399 
2.378676953 
2.22285935 
2.294490091 
2.22491944 
2.217860811 
2.226911926 
2.187194401 
2.949675472 
3.104087666 
2.957407277 
2.860822348 
2.720663942 
2.80209182 
2.696235558 
2.758628317 
2.537432627 
2.522035057 
2.49379601 
2.452462778 
2.371030815 
2.481629791 
2.375067781 
2.362709852 
2.207749134 
2.175599249 
2.187064181 
2.142058923 
2.288883663 
2.20056854 
2.104082992 
2.898955393 
2.92770619 
2.94223968 
2.930405801 
2.848950563 
2.831182726 
2.733352017 
2.639061943 
2.671365337 
2.559644091 
2.427216833 
2.535787571 
2.489008543 
2.363316293 
2.404701806 
2.247164587 
2.34227664 
2.195143154 
2.217876996 
2.162005635 
2.136095344 
2.177380437 
2.177284964 
2.988856689 
3.051329664 
2.939012155 
2.853662974 
2.715455344 
2.72109895 
2.614841834 
2.751706865 
2.62640428 
2.522335927 
2.462328766 
2.530410095 
2.533814367 
2.344453203 
2.336557897 
2.347087518 
2.210979439 
2.350315812 
2.254935932 
2.261314848 
2.159425754 
2.110457934 
2.149237848 
3.081305258 
2.982212145 
2.780563234 
2.871773464 
2.802438748 
2.920842643 
2.709301353 
2.600004117 
2.755071042 
2.566894595 
2.520471562 
2.4430706 
2.441103554 
2.504496758 
2.39791036 
2.397057458 
2.305317146 
2.380829578 
2.225930113 
2.231332653 
2.176089846 
2.153724404 
2.183063742 
2.996494962 
2.952808544 
2.954797083 
2.951101176 
2.813645696 
2.822671693 
2.676813271 
2.614699291 
2.609349684 
2.588161306 
2.569949764 
2.434459991 
2.5023227 
2.428022604 
2.349024862 
2.338349869 
2.357305904 
2.241233884 
2.240076912 
2.239824522 
2.235782958 
2.16640581 
2.166877527 
3.004886319 
2.993574039 
2.938594866 
2.985173575 
2.835550931 
2.747777979 
2.667583308 
2.723145585 
2.70830983 
2.525942943 
2.548087666 
2.398729186 
2.476845077 
2.522859221 
2.439365029 
2.369934812 
2.334566916 
2.192287542 
2.141776062 
2.134400902 
2.180488866 
2.248125331 
2.216442002 
2.894204203 
3.043089512 
2.866589657 
2.867517788 
2.959268939 
2.703884175 
2.68672239 
2.69823711 
2.692017123 
2.666375336 
2.556983896 
2.550281208 
2.457786376 
2.416981271 
2.32498926 
2.280774158 
2.393340227 
2.290565412 
2.234748761 
2.180925906 
2.12688969 
2.24378067 
2.17154343 
3.072515803 
3.005566978 
2.965103078 
2.850952786 
2.785038378 
2.695339034 
2.752937808 
2.746102652 
2.608800429 
2.636199696 
2.541429174 
2.479829997 
2.566816293 
2.34607459 
2.3185419 
2.259448369 
2.302617542 
2.257357733 
2.294085525 
2.179252942 
2.218351305 
2.141727643 
2.232235698 
3.105817645 
3.05878743 
2.958736037 
2.771940276 
2.799357503 
2.85706133 
2.704345046 
2.670680918 
2.692542629 
2.540791887 
2.546819645 
2.545150408 
2.392626909 
2.465257908 
2.324112977 
2.411510529 
2.333922505 
2.275572523 
2.210968191 
2.217973752 
2.133940944 
2.222649538 
2.206167276 
2.958765147 
3.004583998 
2.969561903 
2.863825609 
2.852176995 
2.924640265 
2.784043654 
2.693401807 
2.716728862 
2.660760947 
2.633945903 
2.416936506 
2.231031849 
2.39050348 
2.383109049 
2.332455419 
2.297193507 
2.285415802 
2.175881136 
2.23646983 
2.216544709 
2.229697884 
2.290052429 
2.914181796 
3.035998028 
2.827970353 
2.830789905 
2.872958403 
2.831689591 
2.761782332 
2.682073952 
2.651407849 
2.554734369 
2.465899244 
2.513918233 
2.392291998 
2.269960736 
2.372009122 
2.320225396 
2.253182091 
2.254082575 
2.278299659 
2.130843083 
2.170047123 
2.077946723 
2.148846713 
3.070722935 
2.883802134 
2.87986051 
2.847867062 
2.707408684 
2.68394918 
2.776975285 
2.575317063 
2.67702518 
2.583100443 
2.461105798 
2.578300263 
2.373243893 
2.369496906 
2.311099494 
2.262210181 
2.231578552 
2.29168083 
2.220743129 
2.171979586 
2.202712484 
2.164729945 
2.166506757 
3.069112682 
2.976151036 
2.974358314 
2.834840969 
2.858394293 
2.793951171 
2.772883233 
2.788565767 
2.682789391 
2.623849284 
2.482976994 
2.570909721 
2.464151833 
2.358585253 
2.296853709 
2.193872554 
2.319684955 
2.309523549 
2.206079729 
2.28838221 
2.143038554 
2.248290807 
2.174266899 
3.050728006 
3.08714401 
2.933093135 
2.828805995 
2.88058107 
2.856596387 
2.64588988 
2.730419483 
2.586931716 
2.552673047 
2.627972643 
2.53510312 
2.380643667 
2.403484317 
2.255123717 
2.244512379 
2.219836799 
2.315309105 
2.252741726 
2.253177056 
2.290831045 
2.147186644 
2.177752763 
3.059918794 
2.888038092 
2.909357734 
2.884089083 
2.807259848 
2.825681264 
2.700912577 
2.668090795 
2.711999418 
2.571472631 
2.467668038 
2.436080623 
2.447708713 
2.50185674 
2.276029115 
2.332309826 
2.251498916 
2.312949879 
2.241682275 
2.222585824 
2.133869974 
2.180735097 
2.149446761 
2.976647846 
3.033086318 
2.91774596 
2.772662784 
2.861448194 
2.711488476 
2.81442734 
2.763532638 
2.549990694 
2.602332154 
2.654589846 
2.474163916 
2.520988877 
2.425083661 
2.385379253 
2.34569045 
2.257724149 
2.246624504 
2.212075397 
2.127392942 
2.183354022 
2.120349982 
2.142768261 
3.014205921 
2.972066044 
2.899894973 
2.886197496 
2.863830988 
2.775010011 
2.835201204 
2.543200594 
2.591136663 
2.555078745 
2.521566774 
2.535920626 
2.481012307 
2.358377892 
2.272990763 
2.370744911 
2.340251026 
2.214619768 
2.269151075 
2.160170302 
2.058243537 
2.18307768 
2.175767341 
3.079824647 
3.057040178 
2.997448475 
2.882209298 
2.844618077 
2.726005097 
2.822856673 
2.776395673 
2.666796862 
2.556130348 
2.53954572 
2.510126702 
2.481867725 
2.341562431 
2.375974779 
2.261087055 
2.298364199 
2.293071966 
2.254325318 
2.224913833 
2.205251976 
2.189491437 
2.230544752 
3.074299604 
2.915657927 
2.903940158 
2.825414838 
2.903521596 
2.682281795 
2.812670717 
2.576391789 
2.605330781 
2.525585792 
2.524317145 
2.516288073 
2.426583103 
2.3876403 
2.314591518 
2.328239897 
2.26659985 
2.31078687 
2.275443266 
2.215770098 
2.228416309 
2.149059947 
2.135058154 
3.033542817 
2.897643498 
2.845797964 
2.775147748 
2.838252272 
2.867600583 
2.750480103 
2.73778589 
2.572649769 
2.645585416 
2.493325107 
2.46254998 
2.452648682 
2.413635258 
2.336918188 
2.313112952 
2.27691564 
2.287937204 
2.215824508 
2.192989428 
2.099925443 
2.125021601 
2.221226976 
3.00846374 
2.972819322 
2.956958814 
2.820250691 
2.846791701 
2.776492839 
2.702153916 
2.743526707 
2.652341339 
2.654050573 
2.447607312 
2.498695561 
2.373127288 
2.314530917 
2.298169979 
2.33993888 
2.3325698 
2.183846901 
2.226639756 
2.253373937 
2.233584802 
2.147433542 
2.140021325 
3.047962462 
2.960783478 
2.873447272 
2.790515505 
2.877589836 
2.756948481 
2.69639119 
2.677784576 
2.653873404 
2.462901864 
2.595245984 
2.549851712 
2.44100829 
2.366235223 
2.452979594 
2.342588256 
2.228883036 
2.279682486 
2.23243452 
2.216262771 
2.337198099 
2.199580138 
2.203174615 
3.114123355 
2.91268823 
3.084624532 
2.806679257 
2.799071396 
2.849086239 
2.837982304 
2.634224685 
2.540266677 
2.553537616 
2.627708141 
2.450715842 
2.441645413 
2.508140741 
2.325734383 
2.342366124 
2.317017113 
2.236387636 
2.204087184 
2.222287527 
2.137777703 
2.103083559 
2.162327218 
3.000369621 
2.950743767 
2.896923817 
2.871808388 
2.78315366 
2.80492204 
2.776321031 
2.638434069 
2.548702757 
2.633229132 
2.568199867 
2.527908418 
2.488105256 
2.294510778 
2.388172445 
2.25268058 
2.353767668 
2.233405384 
2.289914912 
2.230148917 
2.211193486 
2.216033516 
2.062911861 
2.92529127 
2.923077207 
2.81384652 
2.834454583 
2.894798131 
2.829299554 
2.740514319 
2.749214894 
2.718676229 
2.61577006 
2.552863506 
2.468407676 
2.437619282 
2.398476145 
2.415021711 
2.239971373 
2.253372741 
2.240703011 
2.28837642 
2.182157881 
2.10353244 
2.201547668 
2.231879564 
2.98393893 
2.848367412 
2.806867388 
2.845026126 
2.780707765 
2.873928358 
2.667392282 
2.737000366 
2.603186654 
2.616961637 
2.481740802 
2.45138856 
2.428406384 
2.358446837 
2.3234686 
2.301413183 
2.28113429 
2.247332016 
2.267095614 
2.198094404 
2.153376158 
2.169119101 
2.132858498 
2.944887302 
3.043829791 
2.858850995 
2.809888626 
2.884171998 
2.707664069 
2.751404897 
2.683656546 
2.616422029 
2.62352039 
2.643618013 
2.54486855 
2.338686755 
2.447736258 
2.410227582 
2.3178407 
2.378539935 
2.272803134 
2.25084 
2.227949858 
2.271252031 
2.19351403 
2.185447851 
2.93532224 
3.05217713 
2.86631045 
2.846234326 
2.796311523 
2.741082708 
2.810036658 
2.815292734 
2.632606775 
2.576931063 
2.613786772 
2.402693898 
2.374580967 
2.398896142 
2.44985324 
2.341754071 
2.37985384 
2.20564786 
2.214086896 
2.243231242 
2.149534784 
2.177448005 
2.286493675 
SCALARS KDE_ERROR_TAG double 1
LOOKUP_TABLE default
0.02311610025 
0.02293523359 
0.02299129009 
0.02267958614 
0.02240862102 
0.02254565903 
0.02274280915 
0.02225200478 
0.02262134691 
0.02223214723 
0.02261695456 
0.02260501434 
0.02268583054 
0.02260249919 
0.02235318212 
0.02210457278 
0.02280288152 
0.02250519745 
0.0223342151 
0.02276345981 
0.02250625408 
0.02266191204 
0.02270476664 
0.0222067337 
0.02253760523 
0.02286434181 
0.0230224732 
0.02221652179 
0.02226494342 
0.02305762998 
0.02235434375 
0.02256088402 
0.0229448217 
0.02259507373 
0.02227564512 
0.022529256 
0.02272627453 
0.02304287606 
0.0224008149 
0.0229068596 
0.02237268272 
0.02271248409 
0.02240063386 
0.02295304388 
0.02257987784 
0.02283869381 
0.02176320227 
0.02287610114 
0.02208563029 
0.02343261971 
0.02228696054 
0.02259267697 
0.02262850996 
0.02280500949 
0.0225661573 
0.02221429483 
0.02236520202 
0.02284693078 
0.02284846953 
0.02315441775 
0.02334842873 
0.02296402054 
0.02326385666 
0.02314707616 
0.02327643627 
0.02367768542 
0.02353684418 
0.02403875015 
0.02332463176 
0.02315805773 
0.02384391798 
0.02352156957 
0.02339411852 
0.02400650689 
0.02355136536 
0.02335222766 
0.02337348488 
0.02398400233 
0.0238828424 
0.02392631537 
0.02401025501 
0.02391433429 
0.02402683284 
0.02322651521 
0.02405155502 
0.02307275373 
0.02346461207 
0.02294521266 
0.02343726835 
0.02371808779 
0.02348005194 
0.02303020869 
0.02275271095 
0.0223418847 
0.02307713419 
0.02236999344 
0.02290581809 
0.02258651243 
0.02246947489 
0.02299325239 
0.02256234102 
0.02242244644 
0.02214052075 
0.02239614089 
0.02251883596 
0.02299950579 
0.02271718188 
0.02218455462 
0.02275610062 
0.02258500487 
0.02273845932 
0.02285527042 
0.02293518198 
0.02350882395 
0.02276622418 
0.02325669142 
0.0231368683 
0.02285571729 
0.02388456732 
0.02261333446 
0.02372795619 
0.02373240339 
0.0233984975 
0.02432688451 
0.02325941354 
0.02245357616 
0.0227323894 
0.02263113324 
0.02311553126 
0.02289067026 
0.02241158652 
0.02279806629 
0.02281638767 
0.02252181003 
0.02253832991 
0.02285710235 
0.02309810448 
0.02378132696 
0.0235055978 
0.02362548267 
0.02364514978 
0.02425733122 
0.02360752078 
0.02322351882 
0.02394084471 
0.02333765272 
0.02336852241 
0.0234767267 
0.02268829368 
0.02278211803 
0.02253044694 
0.02255089614 
0.02287484303 
0.02288303958 
0.02268270802 
0.02332837514 
0.0232846458 
0.02338355256 
0.02284897958 
0.02333814065 
0.02355907534 
0.02342870908 
0.02290461658 
0.02314480765 
0.02350134015 
0.02413633749 
0.02275921221 
0.02337810318 
0.0233006636 
0.0242891059 
0.02350394187 
0.02229678896 
0.02249761965 
0.02277830718 
0.02304996392 
0.02252715124 
0.02293118938 
0.02298832556 
0.02316244697 
0.02350060561 
0.02323280543 
0.02309689613 
0.02289398885 
0.02340610072 
0.02359237735 
0.02336072058 
0.023601718 
0.02295190174 
0.02315377691 
0.02289319149 
0.02366232208 
0.02334475135 
0.0232272278 
0.02397228749 
0.02313784243 
0.02239374267 
0.02272918839 
0.02229470143 
0.02312766062 
0.02275315512 
0.0230741187 
0.02250370478 
0.02312085037 
0.02282249916 
0.02325762778 
0.0228382525 
0.02265897635 
0.02387711884 
0.02288850589 
0.02331311349 
0.02384426513 
0.02344197702 
0.02359210929 
0.02382926288 
0.02412561491 
0.02385630868 
0.0250042591 
0.02380947969 
0.02401810783 
0.02450319426 
0.02389955342 
0.02343925809 
0.02341508751 
0.02311231683 
0.0228177473 
0.02355757001 
0.02365841905 
0.02324348893 
0.02352736662 
0.023004759 
0.02284343862 
0.02292350087 
0.02302356835 
0.02320146748 
0.02288099021 
0.02259263891 
0.02325001951 
0.02266180243 
0.02247271115 
0.02234472342 
0.02290601208 
0.02368022676 
0.02306581026 
0.02376237238 
0.0234499872 
0.02308766773 
0.02268990247 
0.02253530237 
0.02346491925 
0.02365304649 
0.02314908947 
0.02308968347 
0.022949864 
0.02292071293 
0.02303392581 
0.02268966826 
0.02292722978 
0.02319238894 
0.02310892517 
0.02340122149 
0.02342915102 
0.02316292125 
0.02332219712 
0.02366829339 
0.02389901631 
0.02373783771 
0.02325769712 
0.02419310014 
0.02371957307 
0.02292558421 
0.02271992305 
0.02321110422 
0.02290320436 
0.02292546388 
0.02355869972 