# vtk DataFile Version 3.0
MOAB 4.6.0
ASCII
DATASET UNSTRUCTURED_GRID
POINTS 1225 double
0 -0.5 0.5
0 0.5 0.5
0 -0.3333333333 0.5
0 -0.1666666667 0.5
0 0 0.5
0 0.1666666667 0.5
0 0.3333333333 0.5
0 0.5 -0.5
0 0.5 0.3333333333
0 0.5 0.1666666667
0 0.5 0
0 0.5 -0.1666666667
0 0.5 -0.3333333333
0 -0.5 -0.5
0 0.3333333333 -0.5
0 0.1666666667 -0.5
0 0 -0.5
0 -0.1666666667 -0.5
0 -0.3333333333 -0.5
0 -0.5 -0.3333333333
0 -0.5 -0.1666666667
0 -0.5 0
0 -0.5 0.1666666667
0 -0.5 0.3333333333
0 -0.3333333333 0.3333333333
0 -0.1666666667 0.3333333333
0 -6.938893904e-18 0.3333333333
0 0.1666666667 0.3333333333
0 0.3333333333 0.3333333333
0 -0.3333333333 0.1666666667
0 -0.1666666667 0.1666666667
0 -1.387778781e-17 0.1666666667
0 0.1666666667 0.1666666667
0 0.3333333333 0.1666666667
0 -0.3333333333 0
0 -0.1666666667 0
0 0 0
0 0.1666666667 0
0 0.3333333333 0
0 -0.3333333333 -0.1666666667
0 -0.1666666667 -0.1666666667
0 0 -0.1666666667
0 0.1666666667 -0.1666666667
0 0.3333333333 -0.1666666667
0 -0.3333333333 -0.3333333333
0 -0.1666666667 -0.3333333333
0 0 -0.3333333333
0 0.1666666667 -0.3333333333
0 0.3333333333 -0.3333333333
2.5 -0.5 -0.5
0.2083333333 -0.5 -0.5
0.4166666667 -0.5 -0.5
0.625 -0.5 -0.5
0.8333333333 -0.5 -0.5
1.041666667 -0.5 -0.5
1.25 -0.5 -0.5
1.458333333 -0.5 -0.5
1.666666667 -0.5 -0.5
1.875 -0.5 -0.5
2.083333333 -0.5 -0.5
2.291666667 -0.5 -0.5
2.5 -0.5 0.5
2.5 -0.5 0.3333333333
2.5 -0.5 0.1666666667
2.5 -0.5 0
2.5 -0.5 -0.1666666667
2.5 -0.5 -0.3333333333
2.291666667 -0.5 0.5
2.083333333 -0.5 0.5
1.875 -0.5 0.5
1.666666667 -0.5 0.5
1.458333333 -0.5 0.5
1.25 -0.5 0.5
1.041666667 -0.5 0.5
0.8333333333 -0.5 0.5
0.625 -0.5 0.5
0.4166666667 -0.5 0.5
0.2083333333 -0.5 0.5
0.2083333333 -0.5 -0.3333333333
0.4166666667 -0.5 -0.3333333333
0.625 -0.5 -0.3333333333
0.8333333333 -0.5 -0.3333333333
1.041666667 -0.5 -0.3333333333
1.25 -0.5 -0.3333333333
1.458333333 -0.5 -0.3333333333
1.666666667 -0.5 -0.3333333333
1.875 -0.5 -0.3333333333
2.083333333 -0.5 -0.3333333333
2.291666667 -0.5 -0.3333333333
0.2083333333 -0.5 -0.1666666667
0.4166666667 -0.5 -0.1666666667
0.625 -0.5 -0.1666666667
0.8333333333 -0.5 -0.1666666667
1.041666667 -0.5 -0.1666666667
1.25 -0.5 -0.1666666667
1.458333333 -0.5 -0.1666666667
1.666666667 -0.5 -0.1666666667
1.875 -0.5 -0.1666666667
2.083333333 -0.5 -0.1666666667
2.291666667 -0.5 -0.1666666667
0.2083333333 -0.5 0
0.4166666667 -0.5 0
0.625 -0.5 0
0.8333333333 -0.5 0
1.041666667 -0.5 0
1.25 -0.5 0
1.458333333 -0.5 0
1.666666667 -0.5 0
1.875 -0.5 0
2.083333333 -0.5 0
2.291666667 -0.5 0
0.2083333333 -0.5 0.1666666667
0.4166666667 -0.5 0.1666666667
0.625 -0.5 0.1666666667
0.8333333333 -0.5 0.1666666667
1.041666667 -0.5 0.1666666667
1.25 -0.5 0.1666666667
1.458333333 -0.5 0.1666666667
1.666666667 -0.5 0.1666666667
1.875 -0.5 0.1666666667
2.083333333 -0.5 0.1666666667
2.291666667 -0.5 0.1666666667
0.2083333333 -0.5 0.3333333333
0.4166666667 -0.5 0.3333333333
0.625 -0.5 0.3333333333
0.8333333333 -0.5 0.3333333333
1.041666667 -0.5 0.3333333333
1.25 -0.5 0.3333333333
1.458333333 -0.5 0.3333333333
1.666666667 -0.5 0.3333333333
1.875 -0.5 0.3333333333
2.083333333 -0.5 0.3333333333
2.291666667 -0.5 0.3333333333
2.5 0.5 -0.5
2.291666667 0.5 -0.5
2.083333333 0.5 -0.5
1.875 0.5 -0.5
1.666666667 0.5 -0.5
1.458333333 0.5 -0.5
1.25 0.5 -0.5
1.041666667 0.5 -0.5
0.8333333333 0.5 -0.5
0.625 0.5 -0.5
0.4166666667 0.5 -0.5
0.2083333333 0.5 -0.5
2.5 -0.3333333333 -0.5
2.5 -0.1666666667 -0.5
2.5 0 -0.5
2.5 0.1666666667 -0.5
2.5 0.3333333333 -0.5
0.2083333333 0.3333333333 -0.5
0.4166666667 0.3333333333 -0.5
0.625 0.3333333333 -0.5
0.8333333333 0.3333333333 -0.5
1.041666667 0.3333333333 -0.5
1.25 0.3333333333 -0.5
1.458333333 0.3333333333 -0.5
1.666666667 0.3333333333 -0.5
1.875 0.3333333333 -0.5
2.083333333 0.3333333333 -0.5
2.291666667 0.3333333333 -0.5
0.2083333333 0.1666666667 -0.5
0.4166666667 0.1666666667 -0.5
0.625 0.1666666667 -0.5
0.8333333333 0.1666666667 -0.5
1.041666667 0.1666666667 -0.5
1.25 0.1666666667 -0.5
1.458333333 0.1666666667 -0.5
1.666666667 0.1666666667 -0.5
1.875 0.1666666667 -0.5
2.083333333 0.1666666667 -0.5
2.291666667 0.1666666667 -0.5
0.2083333333 0 -0.5
0.4166666667 0 -0.5
0.625 0 -0.5
0.8333333333 0 -0.5
1.041666667 0 -0.5
1.25 0 -0.5
1.458333333 0 -0.5
1.666666667 0 -0.5
1.875 0 -0.5
2.083333333 0 -0.5
2.291666667 0 -0.5
0.2083333333 -0.1666666667 -0.5
0.4166666667 -0.1666666667 -0.5
0.625 -0.1666666667 -0.5
0.8333333333 -0.1666666667 -0.5
1.041666667 -0.1666666667 -0.5
1.25 -0.1666666667 -0.5
1.458333333 -0.1666666667 -0.5
1.666666667 -0.1666666667 -0.5
1.875 -0.1666666667 -0.5
2.083333333 -0.1666666667 -0.5
2.291666667 -0.1666666667 -0.5
0.2083333333 -0.3333333333 -0.5
0.4166666667 -0.3333333333 -0.5
0.625 -0.3333333333 -0.5
0.8333333333 -0.3333333333 -0.5
1.041666667 -0.3333333333 -0.5
1.25 -0.3333333333 -0.5
1.458333333 -0.3333333333 -0.5
1.666666667 -0.3333333333 -0.5
1.875 -0.3333333333 -0.5
2.083333333 -0.3333333333 -0.5
2.291666667 -0.3333333333 -0.5
2.5 0.5 0.5
2.5 0.5 -0.3333333333
2.5 0.5 -0.1666666667
2.5 0.5 0
2.5 0.5 0.1666666667
2.5 0.5 0.3333333333
2.5 0.3333333333 0.5
2.5 0.1666666667 0.5
2.5 0 0.5
2.5 -0.1666666667 0.5
2.5 -0.3333333333 0.5
2.5 0.3333333333 -0.3333333333
2.5 0.3333333333 -0.1666666667
2.5 0.3333333333 -6.938893904e-18
2.5 0.3333333333 0.1666666667
2.5 0.3333333333 0.3333333333
2.5 0.1666666667 -0.3333333333
2.5 0.1666666667 -0.1666666667
2.5 0.1666666667 -1.387778781e-17
2.5 0.1666666667 0.1666666667
2.5 0.1666666667 0.3333333333
2.5 0 -0.3333333333
2.5 0 -0.1666666667
2.5 0 0
2.5 0 0.1666666667
2.5 0 0.3333333333
2.5 -0.1666666667 -0.3333333333
2.5 -0.1666666667 -0.1666666667
2.5 -0.1666666667 0
2.5 -0.1666666667 0.1666666667
2.5 -0.1666666667 0.3333333333
2.5 -0.3333333333 -0.3333333333
2.5 -0.3333333333 -0.1666666667
2.5 -0.3333333333 0
2.5 -0.3333333333 0.1666666667
2.5 -0.3333333333 0.3333333333
0.2083333333 0.5 0.5
0.4166666667 0.5 0.5
0.625 0.5 0.5
0.8333333333 0.5 0.5
1.041666667 0.5 0.5
1.25 0.5 0.5
1.458333333 0.5 0.5
1.666666667 0.5 0.5
1.875 0.5 0.5
2.083333333 0.5 0.5
2.291666667 0.5 0.5
0.2083333333 -0.3333333333 0.5
0.4166666667 -0.3333333333 0.5
0.625 -0.3333333333 0.5
0.8333333333 -0.3333333333 0.5
1.041666667 -0.3333333333 0.5
1.25 -0.3333333333 0.5
1.458333333 -0.3333333333 0.5
1.666666667 -0.3333333333 0.5
1.875 -0.3333333333 0.5
2.083333333 -0.3333333333 0.5
2.291666667 -0.3333333333 0.5
0.2083333333 -0.1666666667 0.5
0.4166666667 -0.1666666667 0.5
0.625 -0.1666666667 0.5
0.8333333333 -0.1666666667 0.5
1.041666667 -0.1666666667 0.5
1.25 -0.1666666667 0.5
1.458333333 -0.1666666667 0.5
1.666666667 -0.1666666667 0.5
1.875 -0.1666666667 0.5
2.083333333 -0.1666666667 0.5
2.291666667 -0.1666666667 0.5
0.2083333333 0 0.5
0.4166666667 0 0.5
0.625 0 0.5
0.8333333333 0 0.5
1.041666667 0 0.5
1.25 0 0.5
1.458333333 0 0.5
1.666666667 0 0.5
1.875 0 0.5
2.083333333 0 0.5
2.291666667 0 0.5
0.2083333333 0.1666666667 0.5
0.4166666667 0.1666666667 0.5
0.625 0.1666666667 0.5
0.8333333333 0.1666666667 0.5
1.041666667 0.1666666667 0.5
1.25 0.1666666667 0.5
1.458333333 0.1666666667 0.5
1.666666667 0.1666666667 0.5
1.875 0.1666666667 0.5
2.083333333 0.1666666667 0.5
2.291666667 0.1666666667 0.5
0.2083333333 0.3333333333 0.5
0.4166666667 0.3333333333 0.5
0.625 0.3333333333 0.5
0.8333333333 0.3333333333 0.5
1.041666667 0.3333333333 0.5
1.25 0.3333333333 0.5
1.458333333 0.3333333333 0.5
1.666666667 0.3333333333 0.5
1.875 0.3333333333 0.5
2.083333333 0.3333333333 0.5
2.291666667 0.3333333333 0.5
0.2083333333 0.5 0.3333333333
0.4166666667 0.5 0.3333333333
0.625 0.5 0.3333333333
0.8333333333 0.5 0.3333333333
1.041666667 0.5 0.3333333333
1.25 0.5 0.3333333333
1.458333333 0.5 0.3333333333
1.666666667 0.5 0.3333333333
1.875 0.5 0.3333333333
2.083333333 0.5 0.3333333333
2.291666667 0.5 0.3333333333
0.2083333333 0.5 0.1666666667
0.4166666667 0.5 0.1666666667
0.625 0.5 0.1666666667
0.8333333333 0.5 0.1666666667
1.041666667 0.5 0.1666666667
1.25 0.5 0.1666666667
1.458333333 0.5 0.1666666667
1.666666667 0.5 0.1666666667
1.875 0.5 0.1666666667
2.083333333 0.5 0.1666666667
2.291666667 0.5 0.1666666667
0.2083333333 0.5 0
0.4166666667 0.5 0
0.625 0.5 0
0.8333333333 0.5 0
1.041666667 0.5 0
1.25 0.5 0
1.458333333 0.5 0
1.666666667 0.5 0
1.875 0.5 0
2.083333333 0.5 0
2.291666667 0.5 0
0.2083333333 0.5 -0.1666666667
0.4166666667 0.5 -0.1666666667
0.625 0.5 -0.1666666667
0.8333333333 0.5 -0.1666666667
1.041666667 0.5 -0.1666666667
1.25 0.5 -0.1666666667
1.458333333 0.5 -0.1666666667
1.666666667 0.5 -0.1666666667
1.875 0.5 -0.1666666667
2.083333333 0.5 -0.1666666667
2.291666667 0.5 -0.1666666667
0.2083333333 0.5 -0.3333333333
0.4166666667 0.5 -0.3333333333
0.625 0.5 -0.3333333333
0.8333333333 0.5 -0.3333333333
1.041666667 0.5 -0.3333333333
1.25 0.5 -0.3333333333
1.458333333 0.5 -0.3333333333
1.666666667 0.5 -0.3333333333
1.875 0.5 -0.3333333333
2.083333333 0.5 -0.3333333333
2.291666667 0.5 -0.3333333333
0.2083333333 -0.3333333333 -0.3333333333
0.4166666667 -0.3333333333 -0.3333333333
0.625 -0.3333333333 -0.3333333333
0.8333333333 -0.3333333333 -0.3333333333
1.041666667 -0.3333333333 -0.3333333333
1.25 -0.3333333333 -0.3333333333
1.458333333 -0.3333333333 -0.3333333333
1.666666667 -0.3333333333 -0.3333333333
1.875 -0.3333333333 -0.3333333333
2.083333333 -0.3333333333 -0.3333333333
2.291666667 -0.3333333333 -0.3333333333
0.2083333333 -0.1666666667 -0.3333333333
0.4166666667 -0.1666666667 -0.3333333333
0.625 -0.1666666667 -0.3333333333
0.8333333333 -0.1666666667 -0.3333333333
1.041666667 -0.1666666667 -0.3333333333
1.25 -0.1666666667 -0.3333333333
1.458333333 -0.1666666667 -0.3333333333
1.666666667 -0.1666666667 -0.3333333333
1.875 -0.1666666667 -0.3333333333
2.083333333 -0.1666666667 -0.3333333333
2.291666667 -0.1666666667 -0.3333333333
0.2083333333 0 -0.3333333333
0.4166666667 1.387778781e-17 -0.3333333333
0.625 -1.387778781e-17 -0.3333333333
0.8333333333 -1.387778781e-17 -0.3333333333
1.041666667 5.551115123e-17 -0.3333333333
1.25 1.387778781e-17 -0.3333333333
[...]
POINT_DATA 1225
SCALARS KDE_TALLY_TAG double 1
LOOKUP_TABLE default
2.398798053 
2.423525174 
2.426023284 
2.50522906 
2.36976023 
2.441314363 
2.426684729 
2.440777792 
2.444459244 
2.30524824 
2.443410426 
2.491861326 
2.385675187 
2.44489386 
2.371886419 
2.372429019 
2.422490212 
2.450631815 
2.43511308 
2.393789594 
2.359756658 
2.407182496 
2.411827428 
2.408389949 
2.439072554 
2.446011732 
2.42483248 
2.508568851 
2.388538708 
2.434457399 
2.446300787 
2.409028108 
2.397574905 
2.397628201 
2.375048773 
2.460947707 
2.469566366 
2.440553111 
2.472282474 
2.39447954 
2.491852492 
2.474200436 
2.449967957 
2.366083089 
2.441623342 
2.404137398 
2.381732936 
2.36755107 
2.408093018 
1.384858651 
2.421199769 
2.389556091 
2.278553674 
2.263760119 
2.166024069 
2.072743312 
2.005839593 
1.82156286 
1.719580845 
1.671847562 
1.496796758 
1.375835282 
1.417846131 
1.369154761 
1.373503135 
1.39933798 
1.415619347 
1.607250671 
1.668384886 
1.779211882 
1.868593465 
1.936190991 
2.085541328 
2.159426031 
2.210315963 
2.296788673 
2.345315873 
2.340331927 
2.382217627 
2.325432087 
2.282137969 
2.200988473 
2.119863637 
2.108085437 
1.956185046 
1.838751415 
1.750449818 
1.624802491 
1.450535921 
2.393325452 
2.294112218 
2.282636033 
2.201507902 
2.124198782 
2.091344442 
1.91589889 
1.922062006 
1.713716998 
1.667821007 
1.549128615 
2.396754515 
2.336797204 
2.27278689 
2.22959966 
2.18815597 
2.003578301 
1.922229065 
1.840546348 
1.734367689 
1.659129969 
1.539200313 
2.327224669 
2.337053075 
2.25168005 
2.26913988 
2.184090042 
2.041037942 
1.927480327 
1.833120059 
1.840671801 
1.610690756 
1.488625919 
2.470213897 
2.36542499 
2.232157892 
2.259660497 
2.143727131 
2.001953814 
1.926919618 
1.865063661 
1.736097636 
1.621709339 
1.502314147 
1.374138202 
1.538698791 
1.648512855 
1.741043523 
1.878278445 
1.897913846 
2.077131304 
2.173325417 
2.149564608 
2.200837579 
2.300833772 
2.329798641 
1.412539758 
1.399874289 
1.390618735 
1.409083179 
1.39326629 
2.342204113 
2.320298957 
2.277036501 
2.172844785 
2.115220569 
2.003961839 
1.978297022 
1.891439038 
1.706683621 
1.617728997 
1.520283721 
2.387375878 
2.33380812 
2.187873574 
2.167309995 
2.169803089 
2.108258594 
2.028437029 
1.877684814 
1.67575565 
1.642944039 
1.556944281 
2.394101951 
2.369016016 
2.313388567 
2.195162532 
2.148124775 
2.059515181 
1.990988162 
1.906968723 
1.745606765 
1.596377103 
1.516178933 
2.437464552 
2.328155223 
2.278608485 
2.225911476 
2.108833205 
2.038917584 
1.943158927 
1.866267716 
1.750381192 
1.631663536 
1.502015056 
2.393683966 
2.343813041 
2.260023259 
2.246862011 
2.101615873 
2.051468987 
1.881322226 
1.908380785 
1.784237762 
1.64086182 
1.527763616 
1.394813451 
1.374308212 
1.388434241 
1.352839567 
1.374598516 
1.382472074 
1.349400658 
1.374882378 
1.376320828 
1.419001313 
1.39315526 
1.322534987 
1.374229088 
1.426031749 
1.403363035 
1.366994835 
1.353578195 
1.378179604 
1.416645985 
1.406408841 
1.341240218 
1.381818744 
1.362810487 
1.337447057 
1.383500759 
1.389295816 
1.332602819 
1.376044207 
1.378365482 
1.388520156 
1.394162524 
1.408643746 
1.372652974 
1.342047536 
1.402363171 
1.398207299 
2.444964735 
2.316259564 
2.270223425 
2.178896189 
2.091769112 
2.116952495 
1.926162955 
1.851510833 
1.717035844 
1.655576728 
1.573400414 
2.388476141 
2.346981689 
2.329132097 
2.191292037 
2.179737778 
2.066256163 
1.98759672 
1.901370492 
1.831032057 
1.590127006 
1.465456033 
2.356666265 
2.302713414 
2.22304052 
2.21439003 
2.066637823 
2.019985905 
1.879101193 
1.836534495 
1.769905984 
1.630839476 
1.55308269 
2.418300488 
2.326731791 
2.318205424 
2.212998957 
2.112774583 
2.113611865 
1.939362054 
1.821865071 
1.706677089 
1.681639158 
1.534916937 
2.388698043 
2.289926403 
2.338368717 
2.169954417 
2.08541335 
2.020587863 
1.950327468 
1.923632794 
1.776358682 
1.652413984 
1.562111429 
2.317265267 
2.334866337 
2.269612172 
2.201083531 
2.153048108 
2.081661267 
1.988074681 
1.863611987 
1.73055946 
1.73004173 
1.518608742 
2.443747903 
2.297446376 
2.277869921 
2.23406928 
2.164753896 
2.110995198 
1.943016901 
1.84657229 
1.781652664 
1.59700925 
1.577490965 
2.373074754 
2.278005044 
2.28243809 
2.254752609 
2.1686668 
2.032519682 
1.962349941 
1.878509917 
1.754474039 
1.656516582 
1.547980519 
2.419957677 
2.379213699 
2.321305064 
2.087758274 
2.131917633 
1.979584033 
1.921140612 
1.833860882 
1.78185139 
1.67227531 
1.515884967 
2.418024683 
2.388508276 
2.315201664 
2.190299558 
2.162323691 
2.085334106 
1.91102093 
1.855306173 
1.726235287 
1.621250124 
1.520078827 
2.387655811 
2.43062521 
2.262477646 
2.244937638 
2.160669215 
2.058714738 
1.959049735 
1.879394883 
1.709248789 
1.601408519 
1.511338537 
2.410417722 
2.309566333 
2.233000115 
2.217692448 
2.191292707 
2.001462972 
1.98407845 
1.838854147 
1.793868164 
1.597761812 
1.551025514 
2.41913047 
2.29670056 
2.342412939 
2.234707892 
2.116211186 
2.047473108 
1.91990045 
1.810296033 
1.743585198 
1.7118145 
1.472858249 
2.390013858 
2.37342992 
2.285595909 
2.203060079 
2.138882358 
2.03898847 
1.957129634 
1.863586636 
1.732699783 
1.643977054 
1.502607598 
2.369921176 
2.294212158 
2.224647069 
2.152543934 
2.116383996 
2.036447539 
1.952909114 
1.846269221 
1.766687254 
1.680727857 
1.485344606 
2.419192128 
2.383682165 
2.260944188 
2.127239 
2.127189262 
2.090259888 
1.961544044 
1.918880433 
1.713730843 
1.634413968 
1.503233618 
2.346794123 
2.357536163 
2.338414239 
2.23717269 
2.16776198 
2.116454347 
1.984524347 
1.822934591 
1.752945174 
1.641440049 
1.549296097 
2.340854028 
2.377940778 
2.272747805 
2.205260737 
2.067215957 
2.079516024 
1.953062291 
1.838291265 
1.698254211 
1.641577065 
1.556776528 
2.386118283 
2.319913452 
2.317200775 
2.177288568 
2.066040614 
1.948115385 
1.874003262 
1.836676167 
1.677001392 
1.604339908 
1.521120301 
2.39572188 
2.410932072 
2.269650333 
2.240251399 
2.116618393 
2.073523282 
1.959164509 
1.809793646 
1.752060692 
1.691437686 
1.507776841 
2.436560648 
2.291088381 
2.352254548 
2.248471239 
2.147767634 
2.130739209 
1.978979901 
1.862739758 
1.724382187 
1.635741924 
1.451323879 
2.375972545 
2.336970973 
2.236610529 
2.218089668 
2.139042527 
2.150016231 
1.893814434 
1.867838581 
1.760538551 
1.695935783 
1.537285975 
2.38808829 
2.27083567 
2.278627321 
2.18830215 
2.115815415 
2.050505699 
1.937190274 
1.870464769 
1.757796282 
1.654912745 
1.487651129 
2.375466269 
2.364282001 
2.26036025 
2.16590695 
2.184459721 
2.015935222 
1.986309147 
1.85462546 
1.743757063 
1.642698587 
1.577773366 
2.458662658 
2.346662544 
2.284871432 
2.2835945 
2.176400906 
2.041027962 
1.981389592 
1.888673764 
1.722615653 
1.610996344 
1.488419906 
2.396365545 
2.388093024 
2.254426672 
2.174423771 
2.069499847 
2.059727028 
1.941925589 
1.864462451 
1.697588716 
1.674127998 
1.495953354 
2.362330156 
2.281749441 
2.254951521 
2.207907744 
2.130070044 
1.940595894 
1.971263702 
1.852085848 
1.723161655 
1.633094146 
1.544006834 
2.327456105 
2.307518367 
2.237384794 
2.196306218 
2.151605558 
2.122179831 
1.907770245 
1.819144118 
1.803900594 
1.71537379 
1.522368242 
2.431706804 
2.362640697 
2.244084297 
2.230787583 
2.126954265 
2.056757187 
1.911345122 
1.86580305 
1.725894082 
1.651552859 
1.498750274 
2.390456954 
2.366321252 
2.267192222 
2.288311206 
2.116551988 
2.02692941 
2.000169937 
1.933806748 
1.747777693 
1.656333356 
1.603709416 
2.386802232 
2.344611304 
2.348423049 
2.15413193 
2.198846598 
2.100675488 
1.925233434 
1.831044623 
1.74565205 
1.645113719 
1.499839846 
2.363516962 
2.290698928 
2.240263181 
2.239734224 
2.189290346 
1.992013403 
1.923319199 
1.889368521 
1.660306632 
1.651712134 
1.596049285 
2.397467409 
2.297677333 
2.290962876 
2.239420787 
2.202011947 
2.079165902 
1.892540269 
1.860678407 
1.814333034 
1.672517071 
1.531966953 
2.388970118 
2.347065449 
2.283523982 
2.232284314 
2.086138506 
2.115722407 
1.914660724 
1.84977337 
1.761127701 
1.629224206 
1.505288009 
2.401166308 
2.359404217 
2.231016712 
2.188986088 
2.148710735 
2.074356778 
2.014810876 
1.880151702 
1.725641829 
1.672629967 
1.523425186 
2.384229791 
2.342944811 
2.341942318 
2.199750149 
2.165440645 
2.08819467 
1.919949736 
1.894454125 
1.720143529 
1.651815422 
1.512359736 
0.7862301665 
1.2567205 
1.263676036 
1.071939392 
1.026500723 
0.9464719451 
0.9437395398 
0.9129202824 
0.8496170785 
0.836937274 
0.8142833362 
0.8101564284 
0.8458466654 
0.8152750995 
0.7812086845 
0.8087692345 
0.7938818549 
0.7569880423 
0.7599738845 
0.8695918461 
0.87224083 
0.8780873977 
0.926433565 
0.9322233524 
0.9972357526 
1.059371857 
1.086464412 
1.162513292 
1.260379513 
1.265682423 
1.173969068 
1.113523601 
1.028840587 
0.9944053628 
0.8692992005 
0.873784798 
0.8644205395 
0.8564592885 
0.8136854684 
0.7637515783 
1.249580259 
1.145921791 
1.108644726 
1.041840883 
0.9657133983 
0.947583563 
0.9246832689 
0.8602860866 
0.8288225813 
0.815157331 
0.8343681743 
1.316214956 
1.207638559 
1.07769853 
1.077543885 
0.9993917655 
0.9098631551 
0.8520352932 
0.8815816003 
0.8452838351 
0.8045768144 
0.7842582014 
1.232785863 
1.14876775 
1.111248172 
1.023231947 
0.9288382997 
0.9179503061 
0.8780508703 
0.8585615003 
0.7986248919 
0.7983999161 
0.7757579909 
1.247176919 
1.200781888 
1.104880536 
1.007241242 
0.9892837517 
0.9366610488 
0.8950032108 
0.8239392541 
0.8090365731 
0.8121434163 
0.7819011786 
0.7769990511 
0.7726389008 
0.7705264028 
0.8270967856 
0.832504492 
0.8925529223 
0.9406653197 
0.9731584019 
1.036131171 
1.065126383 
1.138952495 
1.251591649 
0.796853312 
0.7593925722 
0.798752278 
0.8060451369 
0.7578868406 
1.273161129 
1.16066678 
1.084914737 
0.9946229188 
0.9729375146 
0.8902296359 
0.8573578409 
0.8560966773 
0.8057758786 
0.8058107004 
0.7819987122 
1.263799923 
1.145130897 
1.094467606 
1.037283531 
0.9723686452 
0.9382197225 
0.8728239672 
0.8243628918 
0.8138720328 
0.783352992 
0.7820737576 
1.308688267 
1.167799962 
1.049831292 
1.003649809 
0.9792573287 
0.9558705535 
0.8684458774 
0.871389284 
0.7980781597 
0.8261517489 
0.8328521699 
1.319649207 
1.140712605 
1.081763747 
0.9823147971 
0.9404214013 
0.924445875 
0.8682945213 
0.8778039287 
0.8269678173 
0.803125182 
0.7687598102 
1.260214035 
1.153282008 
1.073542267 
1.051001561 
1.005802481 
0.9009620041 
0.8696210556 
0.8356091417 
0.8130342696 
0.8167462829 
0.797525518 
0.784189795 
0.755512558 
0.7568664952 
0.7475536814 
0.8014621103 
0.7778765353 
0.7900459761 
0.7754539659 
0.7569974065 
0.7869037114 
0.7861907952 
0.7540287621 
0.7838805151 
0.7797681574 
0.7763365251 
0.745436854 
0.7746315714 
0.7496114537 
0.7637981592 
0.8308529566 
0.7446242047 
0.7538381702 
0.7388971811 
0.7722698304 
0.7523344064 
0.7537701703 
0.7647994242 
0.7769934816 
0.806983648 
0.7903336242 
0.7982680196 
0.7939766798 
0.8002359257 
0.8150315752 
0.8106671916 
0.7773263211 
1.27311414 
1.180376127 
1.053929355 
1.054845181 
0.9563673318 
0.899046779 
0.8470603744 
0.8604073092 
0.8559599617 
0.8119644584 
0.7800025229 
1.247178717 
1.193706897 
1.093490537 
1.078125765 
0.9152923522 
0.9274669902 
0.9475933121 
0.8297278108 
0.8159116268 
0.8339868177 
0.788977243 
1.205899887 
1.176333965 
1.061605674 
0.9864606886 
0.9777623662 
0.9415748655 
0.8977508146 
0.8706851597 
0.8413745625 
0.801165655 
0.8107234592 
1.280450205 
1.206042972 
1.082020729 
1.033623883 
0.9764128634 
0.9039165899 
0.8731802269 
0.9472704712 
0.8940120828 
0.8421014237 
0.757316445 
1.240137878 
1.17863405 
1.045081955 
1.051804959 
0.9676279248 
0.9218106496 
0.9010585605 
0.8423059139 
0.8080580988 
0.7874282688 
0.7934577295 
1.243351145 
1.125820016 
1.087067463 
0.9855346997 
0.9615151962 
0.9314294099 
0.8790199355 
0.8569990989 
0.8300298999 
0.8353394524 
0.838907595 
1.249125091 
1.126457132 
1.095739699 
1.043586436 
0.9335300238 
0.9733301416 
0.8873722566 
0.8650779814 
0.8117182656 
0.8169081153 
0.7941577546 
1.263743034 
1.188079623 
1.144603862 
1.071786485 
0.9903208421 
0.895245182 
0.8926255667 
0.8971738232 
0.8143745981 
0.8149920432 
0.7949176977 
1.24359879 
1.113497107 
1.094590826 
1.016937874 
0.950641092 
0.8888488103 
0.9033160322 
0.856430296 
0.8194525636 
0.8182137023 
0.7672234797 
1.297957715 
1.199071621 
1.106544696 
1.035128621 
0.9977791141 
0.8957813948 
0.8961686258 
0.8900254318 
0.8087519925 
0.7803573839 
0.7753820612 
1.265462718 
1.171531696 
1.096583719 
1.000318732 
0.9777527249 
0.8927628569 
0.8296041817 
0.8344076861 
0.7981452517 
0.834099635 
0.8084143596 
1.261777463 
1.150656556 
1.120662974 
1.006830625 
1.017694892 
0.9220689086 
0.9146930241 
0.8508470928 
0.8686638224 
0.8114397097 
0.7977586135 
1.23614833 
1.184082643 
1.097455488 
1.107856141 
0.9816719837 
0.9019460515 
0.8919896594 
0.8483289514 
0.8463352992 
0.8065568462 
0.7977944614 
1.323683387 
1.185192773 
1.093705153 
1.062573289 
0.9700153854 
0.9461594909 
0.8741621561 
0.85764377 
0.8103407025 
0.8057969295 
0.788023232 
1.276307688 
1.12878072 
1.082135483 
1.016729985 
0.9568488775 
0.935325152 
0.9054910765 
0.8647062376 
0.8225245322 
0.8280314341 
0.7812353844 
1.236765694 
1.167168801 
1.066752623 
0.9977734638 
0.991212837 
0.9296199543 
0.9181974467 
0.8547443937 
0.8591036626 
0.8417227831 
0.8401308814 
1.222380611 
1.176833962 
1.100447385 
1.017065793 
0.985951854 
0.9131774152 
0.8930168105 
0.8155284157 
0.7974025967 
0.8102508935 
0.817018275 
1.230406826 
1.148333106 
1.0939552 
1.006850323 
0.9657826493 
0.8859550147 
0.8572615117 
0.8891826377 
0.8434454295 
0.7975680838 
0.7948375573 
1.274254848 
1.202606303 
1.10808212 
1.069230083 
0.9525132112 
0.9176861211 
0.9172539538 
0.7980135352 
0.807805219 
0.8328409779 
0.7894713542 
1.232787638 
1.147856648 
1.139121261 
0.9789749583 
0.9963515259 
0.9874168054 
0.8439610281 
0.815577547 
0.7901163318 
0.8150020851 
0.7504304396 
1.232865164 
1.17439376 
1.081220788 
1.045781147 
0.9680348536 
0.9386492598 
0.8346706489 
0.8214579763 
0.8331013328 
0.8487831606 
0.8225107777 
1.242833427 
1.212600618 
1.099685043 
0.9547433605 
0.9851193017 
0.9046979518 
0.8409789032 
0.9133613861 
0.8084579157 
0.8005492149 
0.8262834729 
1.224411785 
1.154638992 
1.088335541 
1.058533919 
0.9786663386 
0.9372719399 
0.864521683 
0.8518388482 
0.7765673805 
0.8011018342 
0.793881069 
1.275134503 
1.144358938 
1.110261569 
1.02425251 
0.9857694814 
0.9721094222 
0.9104194523 
0.8081354243 
0.8004168966 
0.7724352137 
0.8272606227 
1.236511183 
1.160032468 
1.094529419 
1.029806618 
0.9845873701 
0.8998120692 
0.8211435499 
0.8710384032 
0.8352729965 
0.8524252401 
0.8025851097 
1.247338205 
1.143573948 
1.10841108 
1.00476343 
1.018732214 
0.9460293002 
0.8859374316 
0.8291094715 
0.8484359969 
0.7910611466 
0.7852554595 
1.227865196 
1.184916782 
1.093059993 
1.025440096 
0.9777618925 
0.9579164392 
0.8953858747 
0.8347710333 
0.8486491376 
0.8208919557 
0.7625187329 
1.268410776 
1.219055622 
1.139531078 
1.042821977 
0.9489629259 
0.9036043497 
0.9022151807 
0.8674330147 
0.8684103861 
0.7923855228 
0.7959483442 
1.249008984 
1.14553121 
1.149264292 
1.041276273 
1.004746531 
0.9289404917 
0.8785631383 
0.8453905653 
0.8612777399 
0.8113072262 
0.7815263472 
1.258528468 
1.221813613 
1.036827362 
1.024318773 
0.9907398915 
0.9426526391 
0.9614831324 
0.8753099995 
0.8270942388 
0.7858806797 
0.839341268 
1.269357934 
1.148812692 
1.021534166 
1.026470815 
0.9416472902 
0.9119415466 
0.8709776487 
0.8505721008 
0.8433089695 
0.7971619738 
0.8314791673 
1.262745467 
1.10661558 
1.04822901 
1.011958807 
0.9528943917 
0.8841290853 
0.9345148024 
0.84035469 
0.8397849361 
0.7937390991 
0.7788975467 
1.243931585 
1.204101456 
1.091534879 
0.9937662651 
0.9712604011 
0.9045796305 
0.8975853492 
0.8455256371 
0.8019879642 
0.7839464808 
0.7917276485 
1.22427485 
1.141263704 
1.09596831 
0.9892673911 
0.9004078642 
0.9321828363 
0.9279795981 
0.839041979 
0.8123506203 
0.7811522111 
0.8017778987 
1.284540564 
1.123848269 
1.073039286 
1.030309757 
0.9801792649 
0.9401253608 
0.9347575201 
0.8838062638 
0.8287183045 
0.8427379367 
0.7719459517 
1.261894028 
1.17083588 
1.125291362 
1.053527535 
0.9625871713 
0.9540859761 
0.9030249459 
0.8515377063 
0.8406964273 
0.8319152058 
0.778138959 
SCALARS KDE_ERROR_TAG double 1
LOOKUP_TABLE default
0.01721957969 
0.01689698009 
0.01668912213 
0.01642541089 
0.01624347819 
0.01627626171 
0.0161343606 
0.01713247004 
0.01639519799 
0.01615756395 
0.01658811193 
0.01630823879 
0.01641358336 
0.01665217846 
0.01624805423 
0.01641167262 
0.01650414466 
0.01646973362 
0.01611836448 
0.0165214071 
0.01641542575 
0.0164347889 
0.01641178518 
0.0165221183 
0.01517116304 
0.01549415205 
0.01561044745 
0.01546753653 
0.01568809823 
0.01549923636 
0.01562912538 
0.01571399508 
0.01579515763 
0.01570328255 
0.01573648253 
0.01567820787 
0.01579932942 
0.01593350496 
0.01556808921 
0.01547421483 
0.01584131792 
0.01557495859 
0.01580488205 
0.01559150334 
0.01537602745 
0.01556898308 
0.01571011409 
0.01566974868 
0.01547578874 
0.01968201881 
0.01626217866 
0.01663425733 
0.01710166175 
0.01742184762 
0.01786142433 
0.01769424349 
0.01813305604 
0.01853546442 
0.01876958908 
0.01913359052 
0.01979315112 
0.02044943129 
0.01904198735 
0.01998797502 
0.02014761611 
0.02007808505 
0.01913140764 
0.01962472816 
0.01937897983 
0.01897450416 
0.01879888596 
0.01807451459 
0.0181193033 
0.01760691882 
0.01706983788 
0.01700579014 
0.01687982927 
0.01672876745 
0.01570433432 
0.01618543567 
0.01609227517 
0.01682966259 
0.01700585262 
0.01713796353 
0.01739994084 
0.0180431274 
0.01818793066 
0.0188130191 
0.01887486782 
0.01618256172 
0.01616154041 
0.01636960686 
0.01696752585 
0.01693108961 
0.01711596165 
0.0176654314 
0.0181600675 
0.01854501304 
0.01881287832 
0.01906832177 
0.01584086777 
0.01661371233 
0.01654667679 
0.01709669581 
0.017200506 
0.0176225242 
0.01813758506 
0.01799903357 
0.01836263128 
0.01929542972 
0.01914847684 
0.01610058959 
0.01626704409 
0.01658286142 
0.01675416347 
0.01688211933 
0.01730251739 
0.0178313629 
0.01791237874 
0.01835135045 
0.01871586608 
0.0190932387 
0.01578144997 
0.01631533491 
0.01663879032 
0.01671545626 
0.01683644057 
0.01788291496 
0.01799711128 
0.01831726711 
0.0184651766 
0.01872932986 
0.01943794356 
0.02015129792 
0.01944114549 
0.01956297632 
0.01950563252 
0.01889542411 
0.01836277366 
0.01737309479 
0.01752907219 
0.01720905294 
0.01670710212 
0.01665187791 
0.01663717955 
0.01983140466 
0.01961154814 
0.02003246441 
0.0208580682 
0.02017874554 
0.01601940096 
0.01595229353 
0.01648704529 
0.01676863267 
0.01681851595 
0.01710323114 
0.01776980831 
0.0180067546 
0.01855081546 
0.01845591075 
0.01891734593 
0.01603062609 
0.01659798715 
0.01668822645 
0.01684498035 
0.01745655578 
0.01674627688 
0.01744638274 
0.01814263312 
0.01868713619 
0.0188550217 
0.01896266775 
0.016220021 
0.01614085367 
0.01690532477 
0.01694239258 
0.01731170915 
0.01764551098 
0.01796876101 
0.01798075177 
0.01872438361 
0.01975497232 
0.01917823229 
0.0157325823 
0.01617269209 
0.01727393883 
0.01691703572 
0.01706390805 
0.01723758205 
0.01813593957 
0.01854342944 
0.01902221946 
0.01894764873 
0.01913251854 
0.01585513873 
0.01627537775 
0.01648621877 
0.01661109635 
0.01702179297 
0.0172489117 
0.01780802548 
0.01856209908 
0.0180912874 
0.01882589365 
0.0189158833 
0.02010510478 
0.02016041026 
0.01986356416 
0.01971335118 
0.0194043996 
0.01958916378 
0.01981902718 
0.01964763889 
0.01975179826 
0.01965054018 
0.01942810929 
0.02039269319 
0.02059260293 
0.02017014496 
0.02065432829 
0.02014324001 
0.02075477482 
0.02081490938 
0.02146787123 
0.02067894695 
0.02047063662 
0.0203782413 
0.02133715931 
0.02101336791 
0.02123549413 
0.02051562822 
0.02075621843 
0.02089803059 
0.02077468635 
0.02053038264 
0.02039693122 
0.01977621691 
0.02081077806 
0.02026408819 
0.02028832321 
0.02015099466 
0.01693345215 
0.01655342817 
0.01721496946 
0.01771320643 
0.0176829575 
0.01809327282 
0.01798513467 