# vtk DataFile Version 3.0
MOAB 4.1.0pre
ASCII
DATASET UNSTRUCTURED_GRID
POINTS 1225 double
0 -0.5 0.5
0 0.5 0.5
0 -0.3333333333 0.5
0 -0.1666666667 0.5
0 0 0.5
0 0.1666666667 0.5
0 0.3333333333 0.5
0 0.5 -0.5
0 0.5 0.3333333333
0 0.5 0.1666666667
0 0.5 0
0 0.5 -0.1666666667
0 0.5 -0.3333333333
0 -0.5 -0.5
0 0.3333333333 -0.5
0 0.1666666667 -0.5
0 0 -0.5
0 -0.1666666667 -0.5
0 -0.3333333333 -0.5
0 -0.5 -0.3333333333
0 -0.5 -0.1666666667
0 -0.5 0
0 -0.5 0.1666666667
0 -0.5 0.3333333333
0 -0.3333333333 0.3333333333
0 -0.1666666667 0.3333333333
0 -6.938893904e-18 0.3333333333
0 0.1666666667 0.3333333333
0 0.3333333333 0.3333333333
0 -0.3333333333 0.1666666667
0 -0.1666666667 0.1666666667
0 -1.387778781e-17 0.1666666667
0 0.1666666667 0.1666666667
0 0.3333333333 0.1666666667
0 -0.3333333333 0
0 -0.1666666667 0
0 0 0
0 0.1666666667 0
0 0.3333333333 0
0 -0.3333333333 -0.1666666667
0 -0.1666666667 -0.1666666667
0 0 -0.1666666667
0 0.1666666667 -0.1666666667
0 0.3333333333 -0.1666666667
0 -0.3333333333 -0.3333333333
0 -0.1666666667 -0.3333333333
0 0 -0.3333333333
0 0.1666666667 -0.3333333333
0 0.3333333333 -0.3333333333
5 -0.5 -0.5
0.2083333333 -0.5 -0.5
0.4166666667 -0.5 -0.5
0.625 -0.5 -0.5
0.8333333333 -0.5 -0.5
1.041666667 -0.5 -0.5
1.25 -0.5 -0.5
1.458333333 -0.5 -0.5
1.666666667 -0.5 -0.5
1.875 -0.5 -0.5
2.083333333 -0.5 -0.5
2.291666667 -0.5 -0.5
2.5 -0.5 -0.5
2.708333333 -0.5 -0.5
2.916666667 -0.5 -0.5
3.125 -0.5 -0.5
3.333333333 -0.5 -0.5
3.541666667 -0.5 -0.5
3.75 -0.5 -0.5
3.958333333 -0.5 -0.5
4.166666667 -0.5 -0.5
4.375 -0.5 -0.5
4.583333333 -0.5 -0.5
4.791666667 -0.5 -0.5
5 -0.5 0.5
5 -0.5 0.3333333333
5 -0.5 0.1666666667
5 -0.5 0
5 -0.5 -0.1666666667
5 -0.5 -0.3333333333
4.791666667 -0.5 0.5
4.583333333 -0.5 0.5
4.375 -0.5 0.5
4.166666667 -0.5 0.5
3.958333333 -0.5 0.5
3.75 -0.5 0.5
3.541666667 -0.5 0.5
3.333333333 -0.5 0.5
3.125 -0.5 0.5
2.916666667 -0.5 0.5
2.708333333 -0.5 0.5
2.5 -0.5 0.5
2.291666667 -0.5 0.5
2.083333333 -0.5 0.5
1.875 -0.5 0.5
1.666666667 -0.5 0.5
1.458333333 -0.5 0.5
1.25 -0.5 0.5
1.041666667 -0.5 0.5
0.8333333333 -0.5 0.5
0.625 -0.5 0.5
0.4166666667 -0.5 0.5
0.2083333333 -0.5 0.5
0.2083333333 -0.5 -0.3333333333
0.4166666667 -0.5 -0.3333333333
0.625 -0.5 -0.3333333333
0.8333333333 -0.5 -0.3333333333
1.041666667 -0.5 -0.3333333333
1.25 -0.5 -0.3333333333
1.458333333 -0.5 -0.3333333333
1.666666667 -0.5 -0.3333333333
1.875 -0.5 -0.3333333333
2.083333333 -0.5 -0.3333333333
2.291666667 -0.5 -0.3333333333
2.5 -0.5 -0.3333333333
2.708333333 -0.5 -0.3333333333
2.916666667 -0.5 -0.3333333333
3.125 -0.5 -0.3333333333
3.333333333 -0.5 -0.3333333333
3.541666667 -0.5 -0.3333333333
3.75 -0.5 -0.3333333333
3.958333333 -0.5 -0.3333333333
4.166666667 -0.5 -0.3333333333
4.375 -0.5 -0.3333333333
4.583333333 -0.5 -0.3333333333
4.791666667 -0.5 -0.3333333333
0.2083333333 -0.5 -0.1666666667
0.4166666667 -0.5 -0.1666666667
0.625 -0.5 -0.1666666667
0.8333333333 -0.5 -0.1666666667
1.041666667 -0.5 -0.1666666667
1.25 -0.5 -0.1666666667
1.458333333 -0.5 -0.1666666667
1.666666667 -0.5 -0.1666666667
1.875 -0.5 -0.1666666667
2.083333333 -0.5 -0.1666666667
2.291666667 -0.5 -0.1666666667
2.5 -0.5 -0.1666666667
2.708333333 -0.5 -0.1666666667
2.916666667 -0.5 -0.1666666667
3.125 -0.5 -0.1666666667
3.333333333 -0.5 -0.1666666667
3.541666667 -0.5 -0.1666666667
3.75 -0.5 -0.1666666667
3.958333333 -0.5 -0.1666666667
4.166666667 -0.5 -0.1666666667
4.375 -0.5 -0.1666666667
4.583333333 -0.5 -0.1666666667
4.791666667 -0.5 -0.1666666667
0.2083333333 -0.5 0
0.4166666667 -0.5 0
0.625 -0.5 0
0.8333333333 -0.5 0
1.041666667 -0.5 0
1.25 -0.5 0
1.458333333 -0.5 0
1.666666667 -0.5 0
1.875 -0.5 0
2.083333333 -0.5 0
2.291666667 -0.5 0
2.5 -0.5 0
2.708333333 -0.5 0
2.916666667 -0.5 0
3.125 -0.5 0
3.333333333 -0.5 0
3.541666667 -0.5 0
3.75 -0.5 0
3.958333333 -0.5 0
4.166666667 -0.5 0
4.375 -0.5 0
4.583333333 -0.5 0
4.791666667 -0.5 0
0.2083333333 -0.5 0.1666666667
0.4166666667 -0.5 0.1666666667
0.625 -0.5 0.1666666667
0.8333333333 -0.5 0.1666666667
1.041666667 -0.5 0.1666666667
1.25 -0.5 0.1666666667
1.458333333 -0.5 0.1666666667
1.666666667 -0.5 0.1666666667
1.875 -0.5 0.1666666667
2.083333333 -0.5 0.1666666667
2.291666667 -0.5 0.1666666667
2.5 -0.5 0.1666666667
2.708333333 -0.5 0.1666666667
2.916666667 -0.5 0.1666666667
3.125 -0.5 0.1666666667
3.333333333 -0.5 0.1666666667
3.541666667 -0.5 0.1666666667
3.75 -0.5 0.1666666667
3.958333333 -0.5 0.1666666667
4.166666667 -0.5 0.1666666667
4.375 -0.5 0.1666666667
4.583333333 -0.5 0.1666666667
4.791666667 -0.5 0.1666666667
0.2083333333 -0.5 0.3333333333
0.4166666667 -0.5 0.3333333333
0.625 -0.5 0.3333333333
0.8333333333 -0.5 0.3333333333
1.041666667 -0.5 0.3333333333
1.25 -0.5 0.3333333333
1.458333333 -0.5 0.3333333333
1.666666667 -0.5 0.3333333333
1.875 -0.5 0.3333333333
2.083333333 -0.5 0.3333333333
2.291666667 -0.5 0.3333333333
2.5 -0.5 0.3333333333
2.708333333 -0.5 0.3333333333
2.916666667 -0.5 0.3333333333
3.125 -0.5 0.3333333333
3.333333333 -0.5 0.3333333333
3.541666667 -0.5 0.3333333333
3.75 -0.5 0.3333333333
3.958333333 -0.5 0.3333333333
4.166666667 -0.5 0.3333333333
4.375 -0.5 0.3333333333
4.583333333 -0.5 0.3333333333
4.791666667 -0.5 0.3333333333
5 0.5 -0.5
4.791666667 0.5 -0.5
4.583333333 0.5 -0.5
4.375 0.5 -0.5
4.166666667 0.5 -0.5
3.958333333 0.5 -0.5
3.75 0.5 -0.5
3.541666667 0.5 -0.5
3.333333333 0.5 -0.5
3.125 0.5 -0.5
2.916666667 0.5 -0.5
2.708333333 0.5 -0.5
2.5 0.5 -0.5
2.291666667 0.5 -0.5
2.083333333 0.5 -0.5
1.875 0.5 -0.5
1.666666667 0.5 -0.5
1.458333333 0.5 -0.5
1.25 0.5 -0.5
1.041666667 0.5 -0.5
0.8333333333 0.5 -0.5
0.625 0.5 -0.5
0.4166666667 0.5 -0.5
0.2083333333 0.5 -0.5
5 -0.3333333333 -0.5
5 -0.1666666667 -0.5
5 0 -0.5
5 0.1666666667 -0.5
5 0.3333333333 -0.5
0.2083333333 0.3333333333 -0.5
0.4166666667 0.3333333333 -0.5
0.625 0.3333333333 -0.5
0.8333333333 0.3333333333 -0.5
1.041666667 0.3333333333 -0.5
1.25 0.3333333333 -0.5
1.458333333 0.3333333333 -0.5
1.666666667 0.3333333333 -0.5
1.875 0.3333333333 -0.5
2.083333333 0.3333333333 -0.5
2.291666667 0.3333333333 -0.5
2.5 0.3333333333 -0.5
2.708333333 0.3333333333 -0.5
2.916666667 0.3333333333 -0.5
3.125 0.3333333333 -0.5
3.333333333 0.3333333333 -0.5
3.541666667 0.3333333333 -0.5
3.75 0.3333333333 -0.5
3.958333333 0.3333333333 -0.5
4.166666667 0.3333333333 -0.5
4.375 0.3333333333 -0.5
4.583333333 0.3333333333 -0.5
4.791666667 0.3333333333 -0.5
0.2083333333 0.1666666667 -0.5
0.4166666667 0.1666666667 -0.5
0.625 0.1666666667 -0.5
0.8333333333 0.1666666667 -0.5
1.041666667 0.1666666667 -0.5
1.25 0.1666666667 -0.5
1.458333333 0.1666666667 -0.5
1.666666667 0.1666666667 -0.5
1.875 0.1666666667 -0.5
2.083333333 0.1666666667 -0.5
2.291666667 0.1666666667 -0.5
2.5 0.1666666667 -0.5
2.708333333 0.1666666667 -0.5
2.916666667 0.1666666667 -0.5
3.125 0.1666666667 -0.5
3.333333333 0.1666666667 -0.5
3.541666667 0.1666666667 -0.5
3.75 0.1666666667 -0.5
3.958333333 0.1666666667 -0.5
4.166666667 0.1666666667 -0.5
4.375 0.1666666667 -0.5
4.583333333 0.1666666667 -0.5
4.791666667 0.1666666667 -0.5
0.2083333333 0 -0.5
0.4166666667 0 -0.5
0.625 0 -0.5
0.8333333333 0 -0.5
1.041666667 0 -0.5
1.25 0 -0.5
1.458333333 0 -0.5
1.666666667 0 -0.5
1.875 0 -0.5
2.083333333 0 -0.5
2.291666667 0 -0.5
2.5 0 -0.5
2.708333333 0 -0.5
2.916666667 0 -0.5
3.125 0 -0.5
3.333333333 0 -0.5
3.541666667 0 -0.5
3.75 0 -0.5
3.958333333 0 -0.5
4.166666667 0 -0.5
4.375 0 -0.5
4.583333333 0 -0.5
4.791666667 0 -0.5
0.2083333333 -0.1666666667 -0.5
0.4166666667 -0.1666666667 -0.5
0.625 -0.1666666667 -0.5
0.8333333333 -0.1666666667 -0.5
1.041666667 -0.1666666667 -0.5
1.25 -0.1666666667 -0.5
1.458333333 -0.1666666667 -0.5
1.666666667 -0.1666666667 -0.5
1.875 -0.1666666667 -0.5
2.083333333 -0.1666666667 -0.5
2.291666667 -0.1666666667 -0.5
2.5 -0.1666666667 -0.5
2.708333333 -0.1666666667 -0.5
2.916666667 -0.1666666667 -0.5
3.125 -0.1666666667 -0.5
3.333333333 -0.1666666667 -0.5
3.541666667 -0.1666666667 -0.5
3.75 -0.1666666667 -0.5
3.958333333 -0.1666666667 -0.5
4.166666667 -0.1666666667 -0.5
4.375 -0.1666666667 -0.5
4.583333333 -0.1666666667 -0.5
4.791666667 -0.1666666667 -0.5
0.2083333333 -0.3333333333 -0.5
0.4166666667 -0.3333333333 -0.5
0.625 -0.3333333333 -0.5
0.8333333333 -0.3333333333 -0.5
1.041666667 -0.3333333333 -0.5
1.25 -0.3333333333 -0.5
1.458333333 -0.3333333333 -0.5
1.666666667 -0.3333333333 -0.5
1.875 -0.3333333333 -0.5
2.083333333 -0.3333333333 -0.5
2.291666667 -0.3333333333 -0.5
2.5 -0.3333333333 -0.5
2.708333333 -0.3333333333 -0.5
2.916666667 -0.3333333333 -0.5
3.125 -0.3333333333 -0.5
3.333333333 -0.3333333333 -0.5
3.541666667 -0.3333333333 -0.5
3.75 -0.3333333333 -0.5
3.958333333 -0.3333333333 -0.5
4.166666667 -0.3333333333 -0.5
4.375 -0.3333333333 -0.5
4.583333333 -0.3333333333 -0.5
4.791666667 -0.3333333333 -0.5
5 0.5 0.5
5 0.3333333333 0.5
5 0.1666666667 0.5
5 0 0.5
5 -0.1666666667 0.5
5 -0.3333333333 0.5
5 0.5 -0.3333333333
5 0.5 -0.1666666667
5 0.5 0
5 0.5 0.1666666667
5 0.5 0.3333333333
5 0.3333333333 0.3333333333
5 0.1666666667 0.3333333333
5 6.938893904e-18 0.3333333333
5 -0.1666666667 0.3333333333
5 -0.3333333333 0.3333333333
5 0.3333333333 0.1666666667
5 0.1666666667 0.1666666667
5 1.387778781e-17 0.1666666667
5 -0.1666666667 0.1666666667
5 -0.3333333333 0.1666666667
5 0.3333333333 0
5 0.1666666667 0
5 0 0
5 -0.1666666667 0
5 -0.3333333333 0
5 0.3333333333 -0.1666666667
5 0.1666666667 -0.1666666667
5 0 -0.1666666667
5 -0.1666666667 -0.1666666667
5 -0.3333333333 -0.1666666667
5 0.3333333333 -0.3333333333
5 0.1666666667 -0.3333333333
5 0 -0.3333333333
5 -0.1666666667 -0.3333333333
5 -0.3333333333 -0.3333333333
0.2083333333 0.5 0.5
0.4166666667 0.5 0.5
0.625 0.5 0.5
0.8333333333 0.5 0.5
1.041666667 0.5 0.5
1.25 0.5 0.5
1.458333333 0.5 0.5
1.666666667 0.5 0.5
1.875 0.5 0.5
2.083333333 0.5 0.5
2.291666667 0.5 0.5
2.5 0.5 0.5
2.708333333 0.5 0.5
2.916666667 0.5 0.5
3.125 0.5 0.5
3.333333333 0.5 0.5
3.541666667 0.5 0.5
3.75 0.5 0.5
3.958333333 0.5 0.5
4.166666667 0.5 0.5
4.375 0.5 0.5
4.583333333 0.5 0.5
4.791666667 0.5 0.5
[...]
POINT_DATA 1225
SCALARS KDE_TALLY_TAG double 1
LOOKUP_TABLE default
0.326071437 
0.3211293386 
0.3301920274 
0.3400412715 
0.3850021297 
0.3344997969 
0.3360858245 
0.3239135725 
0.3193990212 
0.3074880674 
0.3076894847 
0.3694835339 
0.2616612658 
0.2713135388 
0.3050246827 
0.2475845313 
0.2824820005 
0.2979852786 
0.2738978754 
0.3102169364 
0.2730911858 
0.3328338672 
0.3764439652 
0.3070317185 
0.2990121215 
0.3136456946 
0.3409198608 
0.3723737109 
0.2360092245 
0.2696372649 
0.2852315769 
0.2838711652 
0.2235338774 
0.2934448956 
0.2566105772 
0.3391335999 
0.3489405295 
0.2510540176 
0.2579894968 
0.3093480487 
0.2717539286 
0.328043042 
0.339417308 
0.2965573041 
0.3090589926 
0.3628611832 
0.3088108404 
0.2537825224 
0.3661421646 
0.02033825819 
0.3438431203 
0.3051976036 
0.2698650136 
0.249929009 
0.2642269796 
0.2514378448 
0.1670997707 
0.1675478304 
0.1664019397 
0.1446708167 
0.1283229468 
0.1137981227 
0.1402486624 
0.07498421545 
0.09915180427 
0.1064592911 
0.06306226497 
0.08353688302 
0.06747745855 
0.04899236493 
0.04767279099 
0.04894749413 
0.02348328082 
0.03849804178 
0.03157720244 
0.04664963304 
0.06079455798 
0.01905770136 
0.03583260751 
0.02871832181 
0.03747893915 
0.04071378638 
0.07656574682 
0.06894053807 
0.1143198188 
0.07093289434 
0.1028613335 
0.07293851601 
0.07754693029 
0.1447989553 
0.1163560835 
0.1570416207 
0.1632438803 
0.1335505424 
0.1980442619 
0.135136167 
0.1605147554 
0.2236687485 
0.224502568 
0.2246751122 
0.3143148221 
0.2382240387 
0.2818169992 
0.2838958095 
0.2320233704 
0.2367339697 
0.2185591877 
0.2115044351 
0.1597803156 
0.1382517473 
0.1671734037 
0.1017870217 
0.0868390554 
0.1142290763 
0.09241193127 
0.1075701863 
0.1051414222 
0.05378706356 
0.07215188407 
0.07031467313 
0.03690204673 
0.04552790354 
0.04279568743 
0.01208713596 
0.0812246374 
0.2886011794 
0.2837689798 
0.2823207983 
0.2440668351 
0.2203796772 
0.1896427832 
0.1855026541 
0.1463811082 
0.1573579721 
0.1222719378 
0.1027361792 
0.1695435066 
0.1287960842 
0.1085705916 
0.0413578029 
0.09457422381 
0.06871532734 
0.08556528887 
0.03863844111 
0.06326508272 
0.02141171797 
0.07971937331 
0.02601713319 
0.3484716694 
0.2427571694 
0.2823009442 
0.2324574903 
0.2215239666 
0.2015175979 
0.1795572786 
0.2156195308 
0.1543657189 
0.1731283873 
0.1869545384 
0.08990125963 
0.1045296635 
0.1068399967 
0.08201760251 
0.0936865612 
0.1058442073 
0.06587520453 
0.04566135711 
0.04386455221 
0.06501114939 
0.04292274014 
0.05499177039 
0.2893915737 
0.3004035286 
0.297444623 
0.2358947714 
0.2759087091 
0.1864750166 
0.1814527998 
0.1616551572 
0.1511808213 
0.1379659632 
0.1053276253 
0.1372229345 
0.09486815701 
0.08121732297 
0.1014606186 
0.09442971925 
0.06318986728 
0.06866679913 
0.05664878904 
0.08308302669 
0.03295654072 
0.02204569196 
0.02085408899 
0.2848818796 
0.2978742093 
0.2881491165 
0.2346803773 
0.2074590055 
0.1871057888 
0.2408182173 
0.2221435371 
0.1316144922 
0.1851288953 
0.1360589046 
0.1208813986 
0.09208183586 
0.1399535369 
0.06447474685 
0.09445541983 
0.09686738009 
0.06903932091 
0.05000397789 
0.04736449673 
0.02399407696 
0.05999183361 
0.02962176857 
0.01548264634 
0.02740381201 
0.03382335713 
0.04439414354 
0.04943847822 
0.03350872847 
0.1074624772 
0.06025838356 
0.05541905397 
0.06339613454 
0.09829093594 
0.1325366008 
0.1277919509 
0.1273302212 
0.1384973309 
0.200063385 
0.2192718486 
0.148343272 
0.1926881776 
0.1906912276 
0.2483933225 
0.2066985727 
0.3252934786 
0.2892819646 
0.03260785964 
0.03032634767 
0.02053205924 
0.05233046745 
0.04439623528 
0.322132102 
0.2502279251 
0.2909526917 
0.2454555728 
0.2209831285 
0.2226086541 
0.2160154983 
0.1745311517 
0.1761201498 
0.1329810399 
0.1300265588 
0.1060352371 
0.1147399278 
0.08436001755 
0.09521331807 
0.09644627812 
0.1295379428 
0.06043138111 
0.05610424267 
0.0508385982 
0.06212240011 
0.04549308968 
0.01766343077 
0.2505637306 
0.3103326887 
0.2302146668 
0.2453927104 
0.2343218321 
0.1881814426 
0.1822387171 
0.1320495781 
0.1889139481 
0.1358018943 
0.1237786106 
0.1634468332 
0.09533362199 
0.06313798901 
0.1030212049 
0.04227619579 
0.0449885119 
0.06296345997 
0.05162095294 
0.03163650234 
0.08089197732 
0.02142542737 
0.05385693046 
0.2482343874 
0.3179814701 
0.323514852 
0.2503861108 
0.2168306452 
0.2180680393 
0.1520844386 
0.1778545352 
0.1993777297 
0.1317444999 
0.142967302 
0.1244130437 
0.1242243837 
0.1142330022 
0.1123382 
0.06917528129 
0.1014161372 
0.06728052715 
0.05798030092 
0.05026909479 
0.05151681594 
0.02898256515 
0.03157670874 
0.3411074379 
0.3083036224 
0.3894764921 
0.3106458497 
0.3247599822 
0.2130460893 
0.2927560134 
0.1571720428 
0.1843195372 
0.1319609434 
0.1021080331 
0.1078021971 
0.07969065878 
0.05912583095 
0.105612479 
0.106117518 
0.05811145414 
0.07008233432 
0.0569052729 
0.02563428702 
0.05770134748 
0.04805906053 
0.04039611469 
0.3264746837 
0.2725523138 
0.2095942656 
0.3129656671 
0.1901655602 
0.2138635822 
0.182034708 
0.1568054809 
0.114428208 
0.1381659546 
0.1174900199 
0.112419762 
0.1269132909 
0.07785203068 
0.09707398751 
0.07631659609 
0.09608286665 
0.07917310202 
0.04206141188 
0.05584341628 
0.05975295025 
0.01988081347 
0.04883359252 
0.03694024872 
0.02975762645 
0.01956711514 
0.03281096296 
0.01224861611 
0.01406311192 
0.02799862499 
0.04485769173 
0.04664141479 
0.01662475687 
0.04119557798 
0.04851342836 
0.03412367516 
0.03855742958 
0.04034796337 
0.03294281705 
0.03893653243 
0.03476379856 
0.02642794544 
0.04453885926 
0.04706288237 
0.03693473662 
0.0136200508 
0.02600501576 
0.02631583499 
0.04119307978 
0.04234100892 
0.0269546456 
0.02476526506 
0.03653864812 
0.04452242698 
0.01884813275 
0.05441649321 
0.04422479674 
0.04570315666 
0.04135316507 
0.2151821154 
0.2575537998 
0.2663221011 
0.2271615625 
0.2220754708 
0.1920069113 
0.2014717213 
0.1581539031 
0.1498530049 
0.1374296413 
0.1166343637 
0.1471650392 
0.09376889004 
0.07555902332 
0.09125811562 
0.07102770676 
0.09195102314 
0.02820124704 
0.02752569802 
0.06263658577 
0.03642159503 
0.01366194725 
0.0317006925 
0.2401807648 
0.3012827812 
0.2253621118 
0.2066734923 
0.2372422279 
0.2026142716 
0.2405191049 
0.2213413741 
0.1781427492 
0.1223786998 
0.1421269682 
0.1243298023 
0.08231044606 
0.133130048 
0.1090674817 
0.07414576546 
0.1103557368 
0.07792830132 
0.05049168197 
0.038915592 
0.04288171846 
0.03079365004 
0.02388306223 
0.2803964398 
0.2062206101 
0.3013286171 
0.238048105 
0.2046099974 
0.2323088545 
0.192362736 
0.1977022827 
0.2123763593 
0.1217326184 
0.1347885144 
0.08954778454 
0.1164809126 
0.08377231252 
0.09002300231 
0.05875210345 
0.07400131674 
0.06499897948 
0.04090257243 
0.07257829372 
0.03887975437 
0.0378160044 
0.04826906458 
0.3049963479 
0.2483876105 
0.2593992751 
0.2510506019 
0.2431114754 
0.2664109336 
0.2242073855 
0.2054925648 
0.1592729096 
0.113064988 
0.1005613145 
0.1331033005 
0.1470437379 
0.07724726599 
0.07012693599 
0.1038726316 
0.07528409194 
0.05138071143 
0.05291661827 
0.04019280294 
0.03086070565 
0.02564924888 
0.04184699061 
0.2782096418 
0.2700456863 
0.2860051488 
0.1992507283 
0.2138671539 
0.2087856539 
0.1660421206 
0.2529645695 
0.1639876406 
0.1481690671 
0.1194860927 
0.1242961893 
0.1043630309 
0.07862909518 
0.08065865971 
0.1147302054 
0.08747378376 
0.05070774984 
0.09333851038 
0.06323420308 
0.0618518727 
0.03319202583 
0.02338832118 
0.2745697395 
0.2310157431 
0.2468947429 
0.20593732 
0.2402587263 
0.1933434045 
0.2087646557 
0.165724375 
0.1791833879 
0.1164073427 
0.1203761752 
0.1227082949 
0.1141114641 
0.06448225646 
0.1089087666 
0.08670247258 
0.04271927603 
0.0710370151 
0.0442242102 
0.05759521149 
0.05082604366 
0.0369502378 
0.06100131614 
0.3033578673 
0.2984770868 
0.2559302831 
0.2326048506 
0.2824783538 
0.1877696655 
0.2462989854 
0.192703133 
0.1007826176 
0.1467228918 
0.06983242257 
0.11890059 
0.09215881685 
0.06209003238 
0.1154026382 
0.05975731176 
0.08937226436 
0.03421038879 
0.0500994246 
0.04696993906 
0.03832488754 
0.03273249008 
0.01882910277 
0.3276217449 
0.3061801635 
0.2216563131 
0.2284174649 
0.1731918073 
0.2436659021 
0.1945835252 
0.1503920166 
0.1522060574 
0.1471143521 
0.1452116445 
0.09258003371 
0.132091926 
0.08040013027 
0.1144733771 
0.08134512538 
0.09758783752 
0.0803017153 
0.07377545224 
0.05908168583 
0.05362038763 
0.03479485098 
0.02313191356 
0.2523502235 
0.306251638 
0.2529756535 
0.2493901703 
0.2427463152 
0.2171508705 
0.2087515119 
0.1876544075 
0.134547565 
0.1620508285 
0.1195256792 
0.1509559874 
0.1309285721 
0.1027929297 
0.1057332614 
0.06359364598 
0.06291688432 
0.0544944912 
0.04319384093 
0.05002099475 
0.08312729265 
0.05905435393 
0.04227926052 
0.3011586919 
0.2686583254 
0.2730772234 
0.2528893547 
0.2161399748 
0.2364021551 
0.1981942947 
0.1639972624 
0.1555015797 
0.1160285083 
0.1439505228 
0.1234294102 
0.06345418162 
0.07104014932 
0.09551330746 
0.07431262099 
0.08454942111 
0.092286218 
0.07846501731 
0.07246792529 
0.05597863488 
0.05057699901 
0.05590246491 
0.287557848 
0.2319055026 
0.2881457882 
0.2188804498 
0.1706470127 
0.2084177844 
0.2089306249 
0.1865347164 
0.1392470731 
0.1367708977 
0.1482482191 
0.1279980844 
0.0871008684 
0.1055184509 
0.08282126104 
0.09930443341 
0.06308584138 
0.08677742195 
0.03531456383 
0.02658229679 
0.06521866176 
0.0435750019 
0.03436415555 
0.31022523 
0.2786189024 
0.2451461401 
0.2821224642 
0.2248937187 
0.1965366999 
0.2199619831 
0.1726242738 
0.1850183054 
0.1423447496 
0.1232614021 
0.09450363003 
0.1217548361 
0.08795776585 
0.1163028902 
0.05919058734 
0.06801584084 
0.04066566772 
0.0437430074 
0.04252243493 
0.04074911683 
0.06062024144 
0.03150834123 
0.3738663309 
0.3173653322 
0.2338623113 
0.2354831361 
0.2254399683 
0.173408789 
0.1750553386 
0.2191101298 
0.1881087147 
0.1653447331 
0.1220224349 
0.1577736129 
0.146019423 
0.1373456733 
0.08437146913 
0.06448002639 
0.1299559519 
0.07115206996 
0.07364880079 
0.05233699889 
0.05535229161 
0.05121876308 
0.05176788242 
0.2833417522 
0.2583334175 
0.2516271361 
0.2504896338 
0.2010212809 
0.2193566859 
0.2161341373 
0.1216382104 
0.1815637473 
0.1064044975 
0.1477008455 
0.1560557978 
0.08608709881 
0.125662251 
0.1240991282 
0.09625179078 
0.08529171138 
0.04380291521 
0.08243552849 
0.05046122051 
0.04222151557 
0.02964833487 
0.04860726721 
0.3178308316 
0.2553453697 
0.256134003 
0.2699323167 
0.2080368816 
0.1973991943 
0.2382093017 
0.191179523 
0.1931169915 
0.1503508427 
0.1151126725 
0.1130486029 
0.1123673775 
0.07953733793 
0.04869937216 
0.08338540813 
0.05966361683 
0.05942685003 
0.06613642478 
0.03585898939 
0.03854811902 
0.05537997412 
0.03803802445 
0.2526375701 
0.352387378 
0.248815785 
0.2433669051 
0.2774223165 
0.2509147361 
0.2068259396 
0.2154758011 
0.1513527133 
0.1184944241 
0.1113620902 
0.08565852558 
0.1227259692 
0.1018737011 
0.08149613764 
0.0779838722 
0.07259612268 
0.05573309446 
0.06283050916 
0.052008403 
0.04062630665 
0.02197160346 
0.04644881146 
0.2651792098 
0.2976659015 
0.3386749444 
0.2245223178 
0.2490545674 
0.2572050329 
0.2260239331 
0.2036761244 
0.1972019914 
0.1512565959 
0.1924871325 
0.1192303192 
0.1845544647 
0.1267224845 
0.06483847373 
0.1086383591 
0.09588902113 
0.06758714053 
0.0726134021 
0.01329041571 
0.06360424416 
0.0327644369 
0.07259831171 
0.3122181959 
0.2363868043 
0.2541298912 
0.2915472387 
0.2002142214 
0.2210099172 
0.2063938782 
0.1839962237 
0.1623106515 
0.1227690171 
0.1508596466 
0.142006798 
0.1360078111 
0.1189378418 
0.08416286546 
0.06426083853 
0.05832220767 
0.05471030479 
0.04821483931 
0.05202189336 
0.039567927 
0.03242551945 
0.03895730858 
0.3316051737 
0.2254161359 
0.2585742154 
0.2527790634 
0.2441558004 
0.1810693379 
0.235599167 
0.1369200735 
0.164378472 
0.1546863067 
0.1188879646 
0.1296775585 
0.0849384567 
0.09296924314 
0.1251878743 
0.06315013238 
0.05768799188 
0.08506164226 
0.07143837329 
0.04956501984 
0.0621900077 
0.06675324813 
0.04495312066 
0.2842950956 
0.2517526189 
0.3027095469 
0.2944808741 
0.2024572263 
0.1840733985 
0.2125494501 
0.1966289846 
0.1638798943 
0.1217772174 
0.1303890922 
0.09448034484 
0.1145403409 
0.1239238452 
0.1308506932 
0.07614072248 
0.1181008329 
0.08606478999 
0.01848636487 
0.04108878426 
0.0669779011 
0.02897151089 
0.03711007206 
0.2622060046 
0.2780916616 
0.2574634428 
0.2892583131 
0.2333980187 
0.2491064223 
0.2492854827 
0.210823394 
0.1613955308 
0.1859491352 
0.1563030862 
0.07879366247 
0.1314701507 
0.1007195758 
0.0904521389 
0.07293503824 
0.05292876513 
0.05829358777 
0.07547917332 
0.08875652495 
0.05797297006 
0.02378417483 
0.03205127995 
0.303002212 
0.272052626 
0.2416126856 
0.2679082214 
0.1933535843 
0.2233861953 
0.1998643836 
0.2185514092 
0.2173133748 
0.1939234611 
0.1766819369 
0.1217392449 
0.1024810713 
0.1157049823 
0.09398908616 
0.1230515778 
0.06319241452 
0.07673239433 
0.05573137356 
0.04107941448 
0.0605051691 
0.02205054236 
0.05290451643 
0.3415442851 
0.2732736111 
0.3278749936 
0.2159053983 
0.2374333069 
0.1859217605 
0.1811903197 
0.1664252731 
0.1750881536 
0.1904688497 
0.1062127643 
0.1206406491 
0.08256730384 
0.08430425849 
0.0655106241 
0.1007093767 
0.05679937487 
0.06307401085 
0.04906932972 
0.05317855308 
0.0558533942 
0.043196227 
0.02760192481 
0.2114499275 
0.3121007121 
0.2746690657 
0.3174237553 
0.2380445585 
0.1990625093 
0.2220743898 
0.1951862819 
0.1164709366 
0.1844116255 
0.1061428426 
0.09397317631 
0.1237239336 
0.0867128578 
0.09825316829 
0.07055113451 
0.0843199849 
0.1004930504 
0.07311348621 
0.05817994927 
0.04228962642 
0.04158960953 
0.03301429693 
0.2557174785 
0.2234185837 
0.2841348398 
0.2748551566 
0.2875328413 
0.2309523644 
0.2080080568 
0.1711684405 
0.143922481 
0.1745970427 
0.1499766694 
0.1134934667 
0.09769546319 
0.09299458779 
0.07967797755 
0.08836123396 
0.05621031769 
0.06323524805 
0.05106950648 
0.05197125776 
0.0481964634 
0.05249976764 
0.0365970424 
0.2878765811 
0.2365353324 
0.2605520933 
0.2405190238 
0.2357477959 
0.2971568501 
0.2160645502 
0.1734788047 
0.1371910811 
0.1705911962 
0.1601473763 
0.09104270793 
0.1341201323 
0.0773117868 
0.06424776576 
0.07960195801 
0.09395774815 
0.07382397288 
0.04998232329 
0.03968249117 
0.02506993286 
0.03873936189 
0.06506198508 
0.3548089037 
0.3318023049 
0.2710941352 
0.2172614586 
0.1878694538 
0.2190973263 
0.1801176314 
0.1649723774 
0.198895894 
0.1347843372 
0.08408264263 
0.1161103727 
0.1296577817 
0.1623374061 
0.0978175514 
0.0676360252 
0.06308942173 
0.05964802711 
0.04777793412 
0.0683369205 
0.04557714403 
0.02928205533 
0.04021007504 
0.319087479 
0.3295146493 
0.1963858187 
0.2320996515 
0.2753840044 
0.2181744687 
0.1886166826 
0.1872105005 
0.1636647415 
0.1216199329 
0.1492127901 
0.08455204036 
0.07571521848 
0.08944111118 
0.1021764162 
0.1128225544 
0.08342566687 
0.07135506409 
0.07301744056 
0.05597776102 
0.06347880083 
0.04355119513 
0.0419018581 
0.3151989143 
0.2697256316 
0.2353492094 
0.2106489079 
0.2093879105 
0.2347924154 
0.2072960179 
0.2397053614 
0.174512319 
0.1846169752 
0.124620414 
0.1193111469 
0.1208103617 
0.0903127612 
0.1062306636 
0.09149712462 
0.08202892136 
0.09975509811 
0.06701097871 
0.03996850481 
0.04302430785 
0.03311978566 
0.05801683007 
0.2788254149 
0.2609154756 
0.2547539203 
0.3254739007 
0.2357193612 
0.1986181084 
0.2072443911 
0.2279091201 
0.1871429936 
0.1192647937 
0.1481759617 
0.1256636775 
0.1298659465 
0.1087917341 
0.1685462398 
0.05112506942 
0.08831173025 
0.08581407321 
0.04071874088 
0.06345431003 
0.04572692218 
0.05956191977 
0.04359354105 
0.2936159455 
0.2181367842 
0.2266338348 
0.2239016242 
0.1996524608 
0.1539512098 
0.2307260012 
0.1882172205 
0.1469491745 
0.1748474089 
0.1425755811 
0.1511347633 
0.1302334985 
0.1167192695 
0.1049058834 
0.1073899624 
0.0932290322 
0.04994668238 
0.05659928729 
0.04344770184 
0.03950775921 
0.02917094142 
0.01813102433 
0.3492802602 
0.2769754282 
0.276360305 
0.2050880215 
0.1851876268 
0.2469926429 
0.1672001758 
0.134883779 
0.1723031786 
0.1388527163 
0.1303686905 
0.1215155329 
0.08147125199 
0.09319163634 
0.07454685244 
0.072716957 
0.05722520342 
0.05690631426 
0.06171836612 
0.1022029879 
0.0329743577 
0.03348280084 
0.04358869989 
0.2825306131 
0.2472862867 
0.2348064531 
0.2605813348 
0.2089875275 
0.1807537512 
0.1708639551 
0.1936767948 
0.2123302433 
0.1469732532 
0.1031436722 
0.1338417914 
0.1261970965 
0.1224296761 
0.08919403741 
0.09515510429 
0.09908269372 
0.06141180768 
0.07577263309 
0.05970422185 
0.03706077736 
0.06572397014 
0.06840663699 
0.3254976967 
0.2401943615 
0.2798078252 
0.2458925959 
0.2069616518 
0.1736968994 
0.167057045 
0.2036642706 
0.18437001 
0.1185513557 
0.1157047131 
0.109305573 
0.082659274 
0.1303280068 
0.09290749969 
0.06424727832 
0.05021183969 
0.06525926552 
0.07768297957 
0.04245216116 
0.07232655545 
0.05092125673 
0.06494852479 
0.3800942648 
0.2696411158 
0.208447482 
0.2860324766 
0.2386343544 
0.2157491831 
0.2621771999 
0.1898736107 
0.1571256949 
0.1595664439 
0.1066161609 
0.1249063822 
0.09680845734 
0.09565681386 
0.07107013077 
0.08331176411 
0.0762549641 
0.04964873217 
0.05391729473 
0.05798534758 
0.04754645008 
0.06022988294 
0.03048218497 
0.3899716473 
0.2272458502 
0.2430116033 
0.3053387019 
0.2053354753 
0.2253949594 
0.2069994866 
0.2039861109 
0.1314622125 
0.1670267516 
0.09763491495 
0.1322300252 
0.1029251609 
0.1172411911 
0.0771723265 
0.06940931281 
0.06910092416 
0.1005155914 
0.06281845439 
0.04684667214 
0.03564011946 
0.03481202503 
0.03352733595 
SCALARS KDE_ERROR_TAG double 1
LOOKUP_TABLE default
0.1320126592 
0.1349048089 
0.1322673291 
0.122514315 
0.1202311314 
0.1224057408 
0.1212316527 
0.1318914856 
0.1236775115 
0.131075614 
0.1343989315 
0.1297360602 
0.1346311713 
0.139284235 
0.1314080549 
0.1492160376 
0.1354423628 
0.1315134761 
0.1327273948 
0.1328467038 
0.131871626 
0.1207882593 
0.1174578652 
0.1299351411 
0.1193817646 
0.1333041131 
0.1333567705 
0.1194565821 
0.1350767883 
0.1299933806 
0.139592393 
0.1305221135 
0.146541206 
0.1257611943 
0.1412948553 
0.1239107247 
0.1163746083 
0.1514088706 
0.1358430196 
0.1234417697 
0.1360802576 
0.1301627402 
0.1287345544 
0.1341057608 
0.1265153778 
0.1206011968 
0.135304344 
0.142352052 
0.1155046611 
0.3721763893 
0.1219726658 
0.1326931635 
0.1383845675 
0.1490863192 
0.1347717928 
0.1660263698 
0.1710787612 
0.1654458903 
0.1860658153 
0.1860368779 
0.196053787 
0.1833587198 
0.1812084673 
0.2046208799 
0.233266948 
0.2158404654 
0.2442441603 
0.2671456195 
0.2377037992 
0.3164431136 
0.288621257 
0.3143347949 
0.3148353151 
0.3152548431 
0.4174366318 
0.3181562048 
0.3299536282 
0.5582725571 
0.3770326941 
0.3961406171 
0.3175352284 
0.3001017936 
0.2492135811 
0.2744288116 
0.2263562031 
0.2332412305 
0.2166127447 
0.2472464508 
0.2189181473 
0.1703907804 
0.1918085265 
0.1785535086 
0.1776578947 
0.2012468692 
0.1691388796 
0.185799191 
0.1651951803 
0.1410026248 
0.1414804024 
0.1386802965 
0.136224796 
0.1308655067 
0.135480162 
0.1531331024 
0.14030683 
0.1324228747 
0.1541012623 
0.1701719429 
0.157069604 
0.1699583159 
0.1648724295 
0.1849312527 
0.210161977 
0.1912530545 
0.2045704444 
0.2051377816 
0.1858784921 
0.2798437131 
0.2380042652 
0.2401653315 
0.2973545026 
0.303545336 
0.2744434508 
0.4274967345 
0.2784452188 
0.1356060846 
0.1349317266 
0.1247931356 
0.1325585216 
0.1488324339 
0.1658614998 
0.1578041873 
0.1812937911 
0.1638000565 
0.2185965818 
0.197763431 
0.1813183387 
0.1931544465 
0.2366697091 
0.2844439237 
0.2291100355 
0.2329714249 
0.2783199021 
0.293950489 
0.2680112789 
0.3221146287 
0.2606108367 
0.345507432 
0.1272984517 
0.1430530453 
0.1357136256 
0.1538487923 
0.1423046476 
0.1525184309 
0.1681382997 
0.1595825918 
0.1893415986 
0.1686147704 
0.1606127129 
0.2308866381 
0.2056272595 
0.1927628983 
0.2082646479 
0.2071632852 
0.2180223667 
0.2800498942 
0.2744137416 
0.3256983343 