# vtk DataFile Version 3.0
MOAB 4.8.3pre
ASCII
DATASET UNSTRUCTURED_GRID
POINTS 2025 double
0 0.5 0.5
5 0.5 0.5
0.2083333333 0.5 0.5
0.4166666667 0.5 0.5
0.625 0.5 0.5
0.8333333333 0.5 0.5
1.041666667 0.5 0.5
1.25 0.5 0.5
1.458333333 0.5 0.5
1.666666667 0.5 0.5
1.875 0.5 0.5
2.083333333 0.5 0.5
2.291666667 0.5 0.5
2.5 0.5 0.5
2.708333333 0.5 0.5
2.916666667 0.5 0.5
3.125 0.5 0.5
3.333333333 0.5 0.5
3.541666667 0.5 0.5
3.75 0.5 0.5
3.958333333 0.5 0.5
4.166666667 0.5 0.5
4.375 0.5 0.5
4.583333333 0.5 0.5
4.791666667 0.5 0.5
5 0.5 -0.5
5 0.5 -0.375
5 0.5 -0.25
5 0.5 -0.125
5 0.5 0
5 0.5 0.125
5 0.5 0.25
5 0.5 0.375
5 -0.5 0.5
5 0.375 0.5
5 0.25 0.5
5 0.125 0.5
5 0 0.5
5 -0.125 0.5
5 -0.25 0.5
5 -0.375 0.5
0 -0.5 0.5
0 -0.375 0.5
0 -0.25 0.5
0 -0.125 0.5
0 0 0.5
0 0.125 0.5
0 0.25 0.5
0 0.375 0.5
0 0.5 -0.5
0 0.5 0.375
0 0.5 0.25
0 0.5 0.125
0 0.5 0
0 0.5 -0.125
0 0.5 -0.25
0 0.5 -0.375
0 -0.5 -0.5
0 0.375 -0.5
0 0.25 -0.5
0 0.125 -0.5
0 0 -0.5
0 -0.125 -0.5
0 -0.25 -0.5
0 -0.375 -0.5
0 -0.5 -0.375
0 -0.5 -0.25
0 -0.5 -0.125
0 -0.5 0
0 -0.5 0.125
0 -0.5 0.25
0 -0.5 0.375
0 -0.375 0.375
0 -0.25 0.375
0 -0.125 0.375
0 0 0.375
0 0.125 0.375
0 0.25 0.375
0 0.375 0.375
0 -0.375 0.25
0 -0.25 0.25
0 -0.125 0.25
0 0 0.25
0 0.125 0.25
0 0.25 0.25
0 0.375 0.25
0 -0.375 0.125
0 -0.25 0.125
0 -0.125 0.125
0 0 0.125
0 0.125 0.125
0 0.25 0.125
0 0.375 0.125
0 -0.375 0
0 -0.25 0
0 -0.125 0
0 0 0
0 0.125 0
0 0.25 0
0 0.375 0
0 -0.375 -0.125
0 -0.25 -0.125
0 -0.125 -0.125
0 0 -0.125
0 0.125 -0.125
0 0.25 -0.125
0 0.375 -0.125
0 -0.375 -0.25
0 -0.25 -0.25
0 -0.125 -0.25
0 0 -0.25
0 0.125 -0.25
0 0.25 -0.25
0 0.375 -0.25
0 -0.375 -0.375
0 -0.25 -0.375
0 -0.125 -0.375
0 0 -0.375
0 0.125 -0.375
0 0.25 -0.375
0 0.375 -0.375
5 -0.5 -0.5
0.2083333333 -0.5 -0.5
0.4166666667 -0.5 -0.5
0.625 -0.5 -0.5
0.8333333333 -0.5 -0.5
1.041666667 -0.5 -0.5
1.25 -0.5 -0.5
1.458333333 -0.5 -0.5
1.666666667 -0.5 -0.5
1.875 -0.5 -0.5
2.083333333 -0.5 -0.5
2.291666667 -0.5 -0.5
2.5 -0.5 -0.5
2.708333333 -0.5 -0.5
2.916666667 -0.5 -0.5
3.125 -0.5 -0.5
3.333333333 -0.5 -0.5
3.541666667 -0.5 -0.5
3.75 -0.5 -0.5
3.958333333 -0.5 -0.5
4.166666667 -0.5 -0.5
4.375 -0.5 -0.5
4.583333333 -0.5 -0.5
4.791666667 -0.5 -0.5
5 -0.5 0.375
5 -0.5 0.25
5 -0.5 0.125
5 -0.5 0
5 -0.5 -0.125
5 -0.5 -0.25
5 -0.5 -0.375
4.791666667 -0.5 0.5
4.583333333 -0.5 0.5
4.375 -0.5 0.5
4.166666667 -0.5 0.5
3.958333333 -0.5 0.5
3.75 -0.5 0.5
3.541666667 -0.5 0.5
3.333333333 -0.5 0.5
3.125 -0.5 0.5
2.916666667 -0.5 0.5
2.708333333 -0.5 0.5
2.5 -0.5 0.5
2.291666667 -0.5 0.5
2.083333333 -0.5 0.5
1.875 -0.5 0.5
1.666666667 -0.5 0.5
1.458333333 -0.5 0.5
1.25 -0.5 0.5
1.041666667 -0.5 0.5
0.8333333333 -0.5 0.5
0.625 -0.5 0.5
0.4166666667 -0.5 0.5
0.2083333333 -0.5 0.5
0.2083333333 -0.5 -0.375
0.4166666667 -0.5 -0.375
0.625 -0.5 -0.375
0.8333333333 -0.5 -0.375
1.041666667 -0.5 -0.375
1.25 -0.5 -0.375
1.458333333 -0.5 -0.375
1.666666667 -0.5 -0.375
1.875 -0.5 -0.375
2.083333333 -0.5 -0.375
2.291666667 -0.5 -0.375
2.5 -0.5 -0.375
2.708333333 -0.5 -0.375
2.916666667 -0.5 -0.375
3.125 -0.5 -0.375
3.333333333 -0.5 -0.375
3.541666667 -0.5 -0.375
3.75 -0.5 -0.375
3.958333333 -0.5 -0.375
4.166666667 -0.5 -0.375
4.375 -0.5 -0.375
4.583333333 -0.5 -0.375
4.791666667 -0.5 -0.375
0.2083333333 -0.5 -0.25
0.4166666667 -0.5 -0.25
0.625 -0.5 -0.25
0.8333333333 -0.5 -0.25
1.041666667 -0.5 -0.25
1.25 -0.5 -0.25
1.458333333 -0.5 -0.25
1.666666667 -0.5 -0.25
1.875 -0.5 -0.25
2.083333333 -0.5 -0.25
2.291666667 -0.5 -0.25
2.5 -0.5 -0.25
2.708333333 -0.5 -0.25
2.916666667 -0.5 -0.25
3.125 -0.5 -0.25
3.333333333 -0.5 -0.25
3.541666667 -0.5 -0.25
3.75 -0.5 -0.25
3.958333333 -0.5 -0.25
4.166666667 -0.5 -0.25
4.375 -0.5 -0.25
4.583333333 -0.5 -0.25
4.791666667 -0.5 -0.25
0.2083333333 -0.5 -0.125
0.4166666667 -0.5 -0.125
0.625 -0.5 -0.125
0.8333333333 -0.5 -0.125
1.041666667 -0.5 -0.125
1.25 -0.5 -0.125
1.458333333 -0.5 -0.125
1.666666667 -0.5 -0.125
1.875 -0.5 -0.125
2.083333333 -0.5 -0.125
2.291666667 -0.5 -0.125
2.5 -0.5 -0.125
2.708333333 -0.5 -0.125
2.916666667 -0.5 -0.125
3.125 -0.5 -0.125
3.333333333 -0.5 -0.125
3.541666667 -0.5 -0.125
3.75 -0.5 -0.125
3.958333333 -0.5 -0.125
4.166666667 -0.5 -0.125
4.375 -0.5 -0.125
4.583333333 -0.5 -0.125
4.791666667 -0.5 -0.125
0.2083333333 -0.5 0
0.4166666667 -0.5 0
0.625 -0.5 0
0.8333333333 -0.5 0
1.041666667 -0.5 0
1.25 -0.5 0
1.458333333 -0.5 0
1.666666667 -0.5 0
1.875 -0.5 0
2.083333333 -0.5 0
2.291666667 -0.5 0
2.5 -0.5 0
2.708333333 -0.5 0
2.916666667 -0.5 0
3.125 -0.5 0
3.333333333 -0.5 0
3.541666667 -0.5 0
3.75 -0.5 0
3.958333333 -0.5 0
4.166666667 -0.5 0
4.375 -0.5 0
4.583333333 -0.5 0
4.791666667 -0.5 0
0.2083333333 -0.5 0.125
0.4166666667 -0.5 0.125
0.625 -0.5 0.125
0.8333333333 -0.5 0.125
1.041666667 -0.5 0.125
1.25 -0.5 0.125
1.458333333 -0.5 0.125
1.666666667 -0.5 0.125
1.875 -0.5 0.125
2.083333333 -0.5 0.125
2.291666667 -0.5 0.125
2.5 -0.5 0.125
2.708333333 -0.5 0.125
2.916666667 -0.5 0.125
3.125 -0.5 0.125
3.333333333 -0.5 0.125
3.541666667 -0.5 0.125
3.75 -0.5 0.125
3.958333333 -0.5 0.125
4.166666667 -0.5 0.125
4.375 -0.5 0.125
4.583333333 -0.5 0.125
4.791666667 -0.5 0.125
0.2083333333 -0.5 0.25
0.4166666667 -0.5 0.25
0.625 -0.5 0.25
0.8333333333 -0.5 0.25
1.041666667 -0.5 0.25
1.25 -0.5 0.25
1.458333333 -0.5 0.25
1.666666667 -0.5 0.25
1.875 -0.5 0.25
2.083333333 -0.5 0.25
2.291666667 -0.5 0.25
2.5 -0.5 0.25
2.708333333 -0.5 0.25
2.916666667 -0.5 0.25
3.125 -0.5 0.25
3.333333333 -0.5 0.25
3.541666667 -0.5 0.25
3.75 -0.5 0.25
3.958333333 -0.5 0.25
4.166666667 -0.5 0.25
4.375 -0.5 0.25
4.583333333 -0.5 0.25
4.791666667 -0.5 0.25
0.2083333333 -0.5 0.375
0.4166666667 -0.5 0.375
0.625 -0.5 0.375
0.8333333333 -0.5 0.375
1.041666667 -0.5 0.375
1.25 -0.5 0.375
1.458333333 -0.5 0.375
1.666666667 -0.5 0.375
1.875 -0.5 0.375
2.083333333 -0.5 0.375
2.291666667 -0.5 0.375
2.5 -0.5 0.375
2.708333333 -0.5 0.375
2.916666667 -0.5 0.375
3.125 -0.5 0.375
3.333333333 -0.5 0.375
3.541666667 -0.5 0.375
3.75 -0.5 0.375
3.958333333 -0.5 0.375
4.166666667 -0.5 0.375
4.375 -0.5 0.375
4.583333333 -0.5 0.375
4.791666667 -0.5 0.375
4.791666667 0.5 -0.5
4.583333333 0.5 -0.5
4.375 0.5 -0.5
4.166666667 0.5 -0.5
3.958333333 0.5 -0.5
3.75 0.5 -0.5
3.541666667 0.5 -0.5
3.333333333 0.5 -0.5
3.125 0.5 -0.5
2.916666667 0.5 -0.5
2.708333333 0.5 -0.5
2.5 0.5 -0.5
2.291666667 0.5 -0.5
2.083333333 0.5 -0.5
1.875 0.5 -0.5
1.666666667 0.5 -0.5
1.458333333 0.5 -0.5
1.25 0.5 -0.5
1.041666667 0.5 -0.5
0.8333333333 0.5 -0.5
0.625 0.5 -0.5
0.4166666667 0.5 -0.5
0.2083333333 0.5 -0.5
5 -0.375 -0.5
5 -0.25 -0.5
5 -0.125 -0.5
5 0 -0.5
5 0.125 -0.5
5 0.25 -0.5
5 0.375 -0.5
0.2083333333 0.375 -0.5
0.4166666667 0.375 -0.5
0.625 0.375 -0.5
0.8333333333 0.375 -0.5
1.041666667 0.375 -0.5
1.25 0.375 -0.5
1.458333333 0.375 -0.5
1.666666667 0.375 -0.5
1.875 0.375 -0.5
2.083333333 0.375 -0.5
2.291666667 0.375 -0.5
2.5 0.375 -0.5
2.708333333 0.375 -0.5
2.916666667 0.375 -0.5
3.125 0.375 -0.5
3.333333333 0.375 -0.5
3.541666667 0.375 -0.5
3.75 0.375 -0.5
3.958333333 0.375 -0.5
4.166666667 0.375 -0.5
4.375 0.375 -0.5
4.583333333 0.375 -0.5
4.791666667 0.375 -0.5
0.2083333333 0.25 -0.5
0.4166666667 0.25 -0.5
0.625 0.25 -0.5
0.8333333333 0.25 -0.5
1.041666667 0.25 -0.5
1.25 0.25 -0.5
1.458333333 0.25 -0.5
1.666666667 0.25 -0.5
1.875 0.25 -0.5
2.083333333 0.25 -0.5
2.291666667 0.25 -0.5
2.5 0.25 -0.5
2.708333333 0.25 -0.5
2.916666667 0.25 -0.5
3.125 0.25 -0.5
3.333333333 0.25 -0.5
3.541666667 0.25 -0.5
3.75 0.25 -0.5
3.958333333 0.25 -0.5
4.166666667 0.25 -0.5
4.375 0.25 -0.5
4.583333333 0.25 -0.5
4.791666667 0.25 -0.5
0.2083333333 0.125 -0.5
0.4166666667 0.125 -0.5
0.625 0.125 -0.5
0.8333333333 0.125 -0.5
1.041666667 0.125 -0.5
1.25 0.125 -0.5
1.458333333 0.125 -0.5
1.666666667 0.125 -0.5
1.875 0.125 -0.5
2.083333333 0.125 -0.5
2.291666667 0.125 -0.5
2.5 0.125 -0.5
2.708333333 0.125 -0.5
2.916666667 0.125 -0.5
3.125 0.125 -0.5
3.333333333 0.125 -0.5
3.541666667 0.125 -0.5
3.75 0.125 -0.5
3.958333333 0.125 -0.5
4.166666667 0.125 -0.5
4.375 0.125 -0.5
4.583333333 0.125 -0.5
4.791666667 0.125 -0.5
0.2083333333 0 -0.5
0.4166666667 0 -0.5
0.625 0 -0.5
0.8333333333 0 -0.5
1.041666667 0 -0.5
1.25 0 -0.5
1.458333333 0 -0.5
1.666666667 0 -0.5
1.875 0 -0.5
2.083333333 0 -0.5
2.291666667 0 -0.5
2.5 0 -0.5
2.708333333 0 -0.5
2.916666667 0 -0.5
3.125 0 -0.5
3.333333333 0 -0.5
3.541666667 0 -0.5
3.75 0 -0.5
3.958333333 0 -0.5
4.166666667 0 -0.5
4.375 0 -0.5
4.583333333 0 -0.5
4.791666667 0 -0.5
0.2083333333 -0.125 -0.5
0.4166666667 -0.125 -0.5
0.625 -0.125 -0.5
0.8333333333 -0.125 -0.5
1.041666667 -0.125 -0.5
1.25 -0.125 -0.5
1.458333333 -0.125 -0.5
1.666666667 -0.125 -0.5
1.875 -0.125 -0.5
2.083333333 -0.125 -0.5
2.291666667 -0.125 -0.5
2.5 -0.125 -0.5
2.708333333 -0.125 -0.5
2.916666667 -0.125 -0.5
3.125 -0.125 -0.5
3.333333333 -0.125 -0.5
3.541666667 -0.125 -0.5
3.75 -0.125 -0.5
3.958333333 -0.125 -0.5
4.166666667 -0.125 -0.5
4.375 -0.125 -0.5
4.583333333 -0.125 -0.5
4.791666667 -0.125 -0.5
0.2083333333 -0.25 -0.5
0.4166666667 -0.25 -0.5
0.625 -0.25 -0.5
0.8333333333 -0.25 -0.5
1.041666667 -0.25 -0.5
1.25 -0.25 -0.5
1.458333333 -0.25 -0.5
1.666666667 -0.25 -0.5
1.875 -0.25 -0.5
2.083333333 -0.25 -0.5
2.291666667 -0.25 -0.5
2.5 -0.25 -0.5
2.708333333 -0.25 -0.5
2.916666667 -0.25 -0.5
3.125 -0.25 -0.5
3.333333333 -0.25 -0.5
3.541666667 -0.25 -0.5
3.75 -0.25 -0.5
3.958333333 -0.25 -0.5
4.166666667 -0.25 -0.5
4.375 -0.25 -0.5
4.583333333 -0.25 -0.5
4.791666667 -0.25 -0.5
0.2083333333 -0.375 -0.5
0.4166666667 -0.375 -0.5
0.625 -0.375 -0.5
0.8333333333 -0.375 -0.5
1.041666667 -0.375 -0.5
1.25 -0.375 -0.5
1.458333333 -0.375 -0.5
1.666666667 -0.375 -0.5
1.875 -0.375 -0.5
2.083333333 -0.375 -0.5
2.291666667 -0.375 -0.5
2.5 -0.375 -0.5
2.708333333 -0.375 -0.5
2.916666667 -0.375 -0.5
3.125 -0.375 -0.5
3.333333333 -0.375 -0.5
3.541666667 -0.375 -0.5
3.75 -0.375 -0.5
3.958333333 -0.375 -0.5
4.166666667 -0.375 -0.5
4.375 -0.375 -0.5
4.583333333 -0.375 -0.5
4.791666667 -0.375 -0.5
5 0.375 0.375
5 0.25 0.375
5 0.125 0.375
5 0 0.375
5 -0.125 0.375
[...]
POINT_DATA 2025
SCALARS KDE_TALLY_TAG double 1
LOOKUP_TABLE default
0.2697491648 
0.2983312865 
0.1860214409 
0.1939953173 
0.272650116 
0.2749475923 
0.2010184323 
0.3252391912 
0.3576716429 
0.2094489443 
0.3031893799 
0.2468311332 
0.2058959172 
0.2286156233 
0.2811543342 
0.2379756567 
0.2658246806 
0.1845251722 
0.3180238888 
0.2803856845 
0.2514912234 
0.2748449151 
0.2280802452 
0.2274349085 
0.1712462317 
0.3286515534 
0.380072735 
0.2643392546 
0.2383937397 
0.2366854227 
0.1981466274 
0.1801405484 
0.1946285941 
0.3218743525 
0.2209385392 
0.2164505901 
0.1891241779 
0.2517211443 
0.223914716 
0.2192146375 
0.1364528349 
0.1200597899 
0.2977725492 
0.2389319371 
0.2996278502 
0.289627876 
0.3326767463 
0.2378556427 
0.2437919797 
0.2395981391 
0.2111890807 
0.2746024871 
0.2740778344 
0.2065816187 
0.1930263131 
0.2296379884 
0.2298691138 
0.3014545744 
0.2563371726 
0.2959096322 
0.3021209336 
0.3062316134 
0.2610052333 
0.1516346449 
0.2665457459 
0.3307850419 
0.1601549432 
0.2962527479 
0.2079816344 
0.2860301425 
0.2395253384 
0.2040467803 
0.2967053403 
0.2485682335 
0.2530463372 
0.2673163963 
0.3043744841 
0.3041863955 
0.3282681704 
0.247414728 
0.2324986602 
0.2329948974 
0.1687940465 
0.2773862432 
0.212275805 
0.2588907392 
0.2947421646 
0.2589079246 
0.2360275732 
0.3011252814 
0.2167629802 
0.2294555235 
0.3053257907 
0.1840564426 
0.2618374557 
0.3021759513 
0.2239131682 
0.2043233396 
0.193152613 
0.2368145607 
0.286515523 
0.2495265185 
0.2908682175 
0.2153989252 
0.3275913423 
0.2017676826 
0.2755837499 
0.2610664407 
0.2672123834 
0.2236724712 
0.2271752125 
0.2121555652 
0.2073053104 
0.2829181082 
0.2160966358 
0.2822284622 
0.2984360923 
0.2269766427 
0.2236657261 
0.2300689645 
0.2410747469 
0.3706512324 
0.274360473 
0.2389828225 
0.2566185769 
0.2067520763 
0.2207847319 
0.2638869969 
0.2603272958 
0.1678906136 
0.254787206 
0.424659687 
0.2135168255 
0.2486104727 
0.3477285057 
0.271505306 
0.2674009537 
0.3190507539 
0.3538851597 
0.2508874893 
0.250980259 
0.3224462296 
0.2515013543 
0.2718938206 
0.2611612114 
0.2520747715 
0.3008028682 
0.267277668 
0.2226663542 
0.2281082106 
0.2349057532 
0.2805098349 
0.2226576082 
0.2925835672 
0.2548481825 
0.2715714365 
0.1550312848 
0.2180563294 
0.2130107528 
0.2752118268 
0.2300449653 
0.2581314752 
0.2075104557 
0.21333463 
0.1930393101 
0.2729395556 
0.2372627841 
0.2361168238 
0.2849836018 
0.2262965233 
0.22362826 
0.3340577466 
0.1149866091 
0.2382299995 
0.4215024274 
0.2615693445 
0.2014667933 
0.2304050659 
0.2553858268 
0.2759093194 
0.1567459725 
0.1629423625 
0.1706870198 
0.2842559493 
0.2283041099 
0.2282013268 
0.1252833564 
0.2762957877 
0.2313602872 
0.2795411975 
0.2771049299 
0.2434823008 
0.1695954497 
0.240596145 
0.2516952617 
0.2353804432 
0.2342086441 
0.2483345115 
0.2171255598 
0.2415027315 
0.1848780372 
0.3171212865 
0.1981263055 
0.2866100834 
0.1793859749 
0.2592517371 
0.2228163767 
0.2299876703 
0.2274126472 
0.3214524791 
0.2305832423 
0.3051542248 
0.207838993 
0.3136180224 
0.2042343073 
0.2409972471 
0.2226529948 
0.2631712986 
0.2679890699 
0.2501693059 
0.2209211736 
0.2988198043 
0.2380391305 
0.2309000248 
0.2357947854 
0.1261734753 
0.3283251053 
0.2100179731 
0.2734497317 
0.213105132 
0.2705510975 
0.212414208 
0.2227288986 
0.2117292506 
0.2211435976 
0.2367002773 
0.1736039469 
0.1936411859 
0.2254847557 
0.2661848803 
0.2228188715 
0.18951515 
0.2009636077 
0.2382527724 
0.198608948 
0.2173594222 
0.2345905631 
0.2948339625 
0.2142602086 
0.2150375854 
0.2757883286 
0.2302814511 
0.2442316921 
0.1975151671 
0.207164134 
0.2365884463 
0.2193524417 
0.2811266073 
0.2797367468 
0.2526121296 
0.2786811917 
0.1777603997 
0.265399877 
0.2463199478 
0.2463844059 
0.2370517396 
0.3239068571 
0.2495554709 
0.2163722604 
0.2386347563 
0.2070341483 
0.2207438514 
0.1480639015 
0.2790528578 
0.1639561855 
0.2740184993 
0.2943568275 
0.2464799346 
0.3093914017 
0.3226908827 
0.2500693949 
0.2654961036 
0.2706112511 
0.242672015 
0.2598985789 
0.2985662659 
0.2337419286 
0.2872989692 
0.2697044689 
0.1807379003 
0.2347957753 
0.2403417466 
0.2746968024 
0.2846819922 
0.2287576527 
0.257595452 
0.2353158453 
0.2855479205 
0.2789916613 
0.1956204361 
0.253517111 
0.2265975677 
0.2722277336 
0.1635973989 
0.2275611981 
0.3782566653 
0.2328926715 
0.2127374718 
0.3340703018 
0.239782187 
0.1666997961 
0.2948389025 
0.209547995 
0.2755525654 
0.2984699605 
0.1711891719 
0.2337004601 
0.2656974189 
0.3865017133 
0.2784683229 
0.301144172 
0.1657333892 
0.2540362819 
0.2634578774 
0.2773455181 
0.2755712735 
0.302691849 
0.2751802818 
0.2590580443 
0.3158212688 
0.154279261 
0.2605257538 
0.2081304224 
0.3032634591 
0.3370619236 
0.2719445472 
0.1630176876 
0.3092246683 
0.1987771019 
0.3213059959 
0.3133639843 
0.2176521389 
0.2832216122 
0.1573698189 
0.2088801563 
0.1934265485 
0.27227591 
0.2830880783 
0.280676588 
0.221612996 
0.2787949071 
0.2660455811 
0.2968923751 
0.2373265546 
0.2812782264 
0.2300384638 
0.2363503272 
0.2273052509 
0.2065587237 
0.2645126393 
0.1828915934 
0.2622144624 
0.2314219869 
0.2052974077 
0.2928419948 
0.2157063372 
0.2192902558 
0.1956569588 
0.2516530709 
0.1697329295 
0.2815597623 
0.2313324386 
0.2225676529 
0.200042983 
0.2858928412 
0.1946482405 
0.2598906805 
0.1800919342 
0.2659912229 
0.2201216607 
0.1793241455 
0.1357296991 
0.1257987024 
0.1769719983 
0.1870914938 
0.2875488949 
0.2925012162 
0.2446660775 
0.2565037927 
0.33090836 
0.2570131705 
0.2304995579 
0.3074604047 
0.2383077942 
0.2042349371 
0.2121226538 
0.2034732325 
0.1989020136 
0.2881212566 
0.2411174948 
0.2909284757 
0.2763283664 
0.2549840454 
0.2580464877 
0.1832517937 
0.2503969866 
0.254448861 
0.3093089134 
0.1970208349 
0.1837869574 
0.2780019506 
0.3078920086 
0.2914921285 
0.1991046941 
0.2727037052 
0.2629778177 
0.2867270722 
0.1935201298 
0.2423975047 
0.2479763159 
0.2496516156 
0.2860605006 
0.26299029 
0.1875384451 
0.3308201122 
0.3382392627 
0.2764556346 
0.211303519 
0.2411887698 
0.2548414097 
0.3276918635 
0.2598506125 
0.3452831706 
0.1462296607 
0.2653857004 
0.2431234143 
0.2080085346 
0.2341526181 
0.21532996 
0.3558440364 
0.2318750223 
0.2769139818 
0.192289181 
0.2057763958 
0.2335953115 
0.2342804723 
0.2581553842 
0.2508368539 
0.1929593901 
0.2498850307 
0.291587021 
0.2727133294 
0.2295725826 
0.2367013629 
0.1651070149 
0.1960815264 
0.2845853321 
0.1931109925 
0.2866686816 
0.3665999599 
0.2280114518 
0.2434783243 
0.2913680545 
0.3106406316 
0.2519103552 
0.228751371 
0.3480273748 
0.3809945426 
0.2082594064 
0.2046891265 
0.1976619568 
0.2956251212 
0.2804025146 
0.2395075566 
0.2462902563 
0.329121802 
0.2446262999 
0.2110703268 
0.2160430365 
0.2911347551 
0.2886001236 
0.2912223787 
0.2861653101 
0.2730665879 
0.1919755626 
0.2372498757 
0.2476702958 
0.2287158186 
0.2352965877 
0.2207814158 
0.2334583035 
0.2662260361 
0.2118453703 
0.2221174032 
0.2562397785 
0.2946711139 
0.2601308565 
0.2047091329 
0.1771591163 
0.2108868963 
0.2308909059 
0.2304128589 
0.2328145178 
0.3007753439 
0.1834863263 
0.3014395279 
0.2795700447 
0.3293209568 
0.2802005249 
0.315862059 
0.2761832373 
0.1701945729 
0.2141687061 
0.3126061543 
0.2267666872 
0.385304382 
0.3083007485 
0.2526345551 
0.3225897271 
0.3372270951 
0.2506814405 
0.3035386938 
0.2768370913 
0.2401275555 
0.2885695644 
0.2562274451 
0.2007663989 
0.2565120785 
0.3178982225 
0.2987134027 
0.3235850658 
0.2494486952 
0.2094266237 
0.2819483514 
0.2456006245 
0.200337379 
0.2482053952 
0.2184514977 
0.2126810634 
0.2726139453 
0.2100457184 
0.3119159673 
0.2431980032 
0.2463959641 
0.2835481815 
0.2984015477 
0.2510084912 
0.2124110231 
0.2811959446 
0.261828031 
0.2439655503 
0.2594362481 
0.2632085394 
0.1780933846 
0.2599766878 
0.3044437843 
0.2436223676 
0.2258687597 
0.2556889485 
0.1877240988 
0.2336702247 
0.2332773351 
0.2457039266 
0.2054799474 
0.2813307475 
0.2560592141 
0.2431688785 
0.2410171767 
0.2608112913 
0.2110809351 
0.2481318531 
0.2399232902 
0.2205674188 
0.3383139892 
0.2447942242 
0.2236694721 
0.1809860933 
0.2702868799 
0.2069666411 
0.1902701708 
0.2197608258 
0.2630163649 
0.2859006879 
0.1987896279 
0.2410729686 
0.2285545248 
0.1630494746 
0.2890790184 
0.2050041031 
0.2764263894 
0.1341082671 
0.2059030044 
0.2399376638 
0.2826853089 
0.1240839908 
0.2822134752 
0.2183032762 
0.2423460638 
0.178708126 
0.3335753807 
0.1869659822 
0.2967719696 
0.2245145662 
0.3138795367 
0.2379888733 
0.3097802384 
0.2260978561 
0.27242572 
0.2977034883 
0.2287551514 
0.3320833237 
0.303112207 
0.2298897265 
0.2215011376 
0.3004317405 
0.2884052947 
0.310883054 
0.2342010031 
0.2481597732 
0.2663752954 
0.2901246602 
0.3432982772 
0.186674921 
0.2986489763 
0.2373753728 
0.2071031205 
0.2303897406 
0.231306904 
0.214113991 
0.2206387881 
0.1926583228 
0.1841376319 
0.1861248353 
0.2776030589 
0.1825409596 
0.2624567366 
0.2358703417 
0.1907710714 
0.2307682253 
0.2497949676 
0.3215931431 
0.1747730108 
0.2083004691 
0.1784040839 
0.2379811899 
0.2112763205 
0.2006195439 
0.2271933323 
0.2875374938 
0.299364214 
0.2761820028 
0.2444935288 
0.1615039129 
0.2960922988 
0.3571651641 
0.2498415534 
0.2010707983 
0.209874501 
0.2693606727 
0.282165389 
0.2527696339 
0.2354412848 
0.3307470197 
0.2911938693 
0.3829548115 
0.2342940071 
0.2360536712 
0.2297071537 
0.3142916775 
0.2295057281 
0.2031337803 
0.2593506625 
0.1943365761 
0.2461783466 
0.2292043559 
0.2444257492 
0.2662571489 
0.3217795344 
0.1530268924 
0.2004478121 
0.3360408179 
0.2744138475 
0.1937233285 
0.2450883863 
0.2198549594 
0.1366152469 
0.3604048979 
0.3251901278 
0.2567459698 
0.3373821443 
0.2394989076 
0.2163433044 
0.2279253456 
0.1765109281 
0.2811997375 
0.2358901287 
0.2701333868 
0.219258287 
0.2263768992 
0.2424651153 
0.231011894 
0.2448283885 
0.259829517 
0.2871896658 
0.1289970147 
0.2183361852 
0.1711960119 
0.2325155688 
0.1986744821 
0.2560172427 
0.2560823198 
0.2561821012 
0.267973112 
0.1605608488 
0.2148339915 
0.2328383682 
0.2209677542 
0.2788943782 
0.3149988587 
0.2756277423 
0.2614831616 
0.2226446222 
0.2121410709 
0.2153479438 
0.2106099618 
0.2313925657 
0.2596280952 
0.3263518696 
0.2674794033 
0.2097542333 
0.2533998902 
0.2222603241 
0.2546395261 
0.2111689039 
0.2431529895 
0.2094155808 
0.3071440315 
0.2857887459 
0.3530662375 
0.2674001976 
0.2565802926 
0.2379121716 
0.2545679646 
0.2718354486 
0.2601414631 
0.2345213251 
0.3044508716 
0.252042245 
0.2118203749 
0.2551077362 
0.2561674736 
0.3019742388 
0.1866007133 
0.343743855 
0.2455520414 
0.3020587262 
0.196262857 
0.289454002 
0.3237211584 
0.272683319 
0.2064337257 
0.2440545925 
0.328258978 
0.2870454223 
0.2929275023 
0.1954801641 
0.1968464691 
0.1619789229 
0.1834305824 
0.3011157564 
0.2932697533 
0.1489846038 
0.3024234334 
0.2953959598 
0.2176099587 
0.1671650127 
0.2462540458 
0.2536662495 
0.2853827905 
0.2073027683 
0.2417337202 
0.2672895139 
0.2562192664 
0.1803486987 
0.1944835957 
0.3437660674 
0.2250751724 
0.2357852077 
0.1824229304 
0.2483131937 
0.2658359069 
0.2633135371 
0.2245891222 
0.2419158565 
0.270769532 
0.1927582367 
0.2425565797 
0.1841533867 
0.1908467936 
0.227718011 
0.1122696103 
0.3113349551 
0.2806976701 
0.2251624246 
0.2129516526 
0.2258267302 
0.2997824503 
0.3503605885 
0.2677474436 
0.2431639218 
0.2514958312 
0.2108163363 
0.1891118775 
0.2729665617 
0.2434116464 
0.3771781184 
0.2097208921 
0.1728605756 
0.2387960597 
0.3065766861 
0.2345820826 
0.2750952144 
0.2620976197 
0.2273517593 
0.2160286135 
0.2357629964 
0.2778277489 
0.2993201818 
0.2234448406 
0.1736181844 
0.1916757316 
0.2723467115 
0.3571817522 
0.2294969968 
0.2849499519 
0.2516883748 
0.2703614606 
0.1945661004 
0.235552749 
0.2372340034 
0.2017496504 
0.2688094634 
0.2617769498 
0.3039360525 
0.2672384836 
0.2203141817 
0.2508641036 
0.251980915 
0.2410948344 
0.2637741142 
0.2711244645 
0.2263500644 
0.2210344015 
0.2471286219 
0.2628419203 
0.3166660441 
0.2956798348 
0.2315776513 
0.2196264749 
0.2203125569 
0.2544069348 
0.2211349846 
0.272278196 
0.2753933972 
0.2699598482 
0.1354192794 
0.2416165325 
0.147477018 
0.301882417 
0.2259113874 
0.229309066 
0.2068641528 
0.2508792816 
0.1822078793 
0.2748821486 
0.2829237806 
0.2481148625 
0.293291559 
0.2746251518 
0.197681651 
0.2034996955 
0.2569959277 
0.2336770221 
0.319728674 
0.2372720842 
0.2312944177 
0.2227686597 
0.2694387301 
0.2017093243 
0.2798038808 
0.2700559681 
0.141846439 
0.357060167 
0.283140873 
0.2504950891 
0.27340888 
0.15411653 
0.2322050226 
0.2509441589 
0.2937957809 
0.2156135475 
0.2178117076 
0.2275028978 
0.3107465172 
0.2719905615 
0.2279831269 
0.213348152 
0.2424362631 
0.2459294832 
0.2647959317 
0.2831297607 
0.2408657497 
0.2237873451 
0.242173048 
0.2203347326 
0.2904852254 
0.1612847256 
0.2851267519 
0.2486033534 
0.2319154289 
0.2184956579 
0.223610962 
0.3465006028 
0.3151623372 
0.2907394997 
0.2884641487 
0.2460862351 
0.1887968795 
0.2570308438 
0.4015311765 
0.3090442076 
0.3507403992 
0.2146876346 
0.2362484246 
0.2439021406 
0.3285700504 
0.2795374625 
0.3108711129 
0.2539646303 
0.328312947 
0.1983843627 
0.3288569154 
0.2366179411 
0.272188287 
0.3841364807 
0.3239443056 
0.1887452761 
0.2293350148 
0.2268527455 
0.2484783676 
0.3083058107 
0.194781956 
0.2531755464 
0.2876887239 
0.2179065898 
0.2432190365 
0.2817811921 
0.2778875015 
0.3484595743 
0.274346433 
0.2085406879 
0.266822567 
0.3646558791 
0.2780268913 
0.3144994154 
0.2073376203 
0.1294866693 
0.189271571 
0.2382093347 
0.222974999 
0.2384154872 
0.201107242 
0.2144789608 
0.2126601516 
0.2599444051 
0.2229371029 
0.226302444 
0.182038659 
0.2683723594 
0.1809143712 
0.2267803862 
0.2483323683 
0.2665218764 
0.2088542339 
0.2272638352 
0.223074625 
0.2112173375 
0.2165105199 
0.2602821556 
0.2013030432 
0.2246525416 
0.2148682309 
0.2590774051 
0.3092166466 
0.2825808933 
0.247042541 
0.2331468066 
0.2892606828 
0.2373678041 
0.2018202278 
0.2298774873 
0.2511643844 
0.271942802 
0.2418582248 
0.223108367 
0.1831989542 
0.1280182679 
0.2760486129 
0.1984833802 
0.255114466 
0.2300574148 
0.2984517509 
0.3597864462 
0.2742727208 
0.2014836478 
0.2752208883 
0.1989221944 
0.3403359752 
0.2047468684 
0.1974604341 
0.2080286476 
0.2182337513 
0.232044861 
0.2446714656 
0.2342511347 
0.1984597098 
0.2384746919 
0.311325558 
0.1919465864 
0.2047995895 
0.1874496088 
0.2116715094 
0.3133485041 
0.283992849 
0.2603915677 
0.2009096021 
0.2659132248 
0.248656471 
0.2336159398 
0.2401735274 
0.1998728226 
0.2273642167 
0.2133695673 
0.3319506113 
0.3137671747 
0.2464120125 
0.269505839 
0.2075012219 
0.2652548638 
0.1703394894 
0.248183638 
0.2838174335 
0.22410311 
0.2019004023 
0.2518044379 
0.2715472557 
0.2401485776 
0.168321636 
0.2600093095 
0.2233472505 
0.2122582704 
0.2021947859 
0.2706418307 
0.242174878 
0.2717976065 
0.3094289217 
0.2622093192 
0.3158395541 
0.2321364663 
0.2242947307 
0.2685411482 
0.2039547288 
0.1808104632 
0.2973536537 
0.3330266507 
0.2593712845 
0.1760168592 
0.195495367 
0.2107053306 
0.2707780429 
0.2868205418 
0.2934147824 
0.2946256039 
0.3043308932 
0.227399884 
0.2335489573 
0.1929768123 
0.2501761755 
0.2289100367 
0.2343305772 
0.2506110413 
0.2747661236 
0.2488942135 
0.2953573654 
0.2530701101 
0.2079909126 
0.2407741673 
0.2327029678 
0.2638728318 
0.2113905691 
0.2211737272 
0.3134151307 
0.2184912203 
0.2795144378 
0.2243799186 
0.2131330618 
0.2353457514 
0.2699957814 
0.2550753023 
0.2715836025 
0.2581415148 
0.2624187532 
0.2897610713 
0.2367179812 
0.2909050672 
0.2999467796 
0.219890495 
0.1964608423 
0.2025978896 
0.2534352745 
0.3840047272 
0.2201936846 
0.2563708428 
0.3144561231 
0.2072613329 
0.2472451123 
0.2165503616 
0.3265806359 
0.2876370201 
0.2849976107 
0.2819593827 
0.24915704 
0.217531051 
0.1849812743 
0.2559479065 
0.2405521576 
0.3141256232 
0.1923191837 
0.2492303109 
0.2270468615 
0.2475157087 
0.2862147559 
0.2382739214 
0.1738098996 
0.2173629865 
0.1780575456 
0.2989089298 
0.2455192478 
0.3191952087 
0.1959417661 
0.2325002653 
0.2776119262 
0.239650679 
0.2052716433 
0.211211752 
0.2522282254 
0.2137303292 
0.2088050387 
0.1777482473 
0.2853270124 
0.3168061066 
0.2472823478 
0.2769739687 
0.1906237189 
0.3367594529 
0.1882211498 
0.2437452316 
0.3013499661 
0.253212695 
0.3027855343 
0.1898967645 
0.2276036569 
0.1658592547 
0.205243708 
0.3038159642 
0.2145586437 
0.2990286528 
0.2233063492 
0.2764946426 
0.245879262 
0.1896923591 
0.2293697712 
0.2467234151 
0.2419692899 
0.2155072252 
0.2440264386 
0.2135750035 
0.2231246379 
0.3054603501 
0.2230751204 
0.2339222645 
0.2374923985 
0.2791598005 
0.2564542036 
0.188525665 
0.293489109 
0.2384902269 
0.3025553697 
0.3395436845 
0.2668312382 
0.292836125 
0.2835456932 
0.2152566588 
0.3579075898 
0.2899865385 
0.2424209682 
0.3502632728 
0.2433928811 
0.2631582547 
0.2536786505 
0.269588267 
0.3081729792 
0.2549715526 
0.2358594836 
0.2467427742 
0.3284125499 
0.3763249038 
0.339497826 
0.2225738287 
0.2775070009 
0.3264938128 
0.2278223305 
0.2504584562 
0.204941073 
0.2471214402 
0.2572500076 
0.2317700463 
0.2748699736 
0.2044815123 
0.2928901103 
0.2027935195 
0.3088902959 
0.2533803898 
0.2824122727 
0.2376077951 
0.2816969465 
0.2139594361 
0.2655233991 
0.2788303336 
0.320014486 
0.2980676662 
0.19767051 
0.2177517136 
0.2515969181 
0.4109593723 
0.3742492657 
0.2615867841 
0.2155151729 
0.1716913117 
0.1854084553 
0.2740277783 
0.2974499942 
0.2385370613 
0.3755615358 
0.1952242233 
0.2356684016 
0.2879090236 
0.2596381816 
0.2406124068 
0.2324180193 
0.2967302591 
0.2787203917 
0.2736323182 
0.2753701474 
0.2873882946 
0.2488438043 
0.1947737361 
0.2741852052 
0.1949605858 
0.2347726512 
0.2139051584 
0.223258638 
0.2110100101 
0.2288612688 
0.1608824568 
0.2888301926 
0.2112931186 
0.182571672 
0.2168719151 
0.2435517781 
0.3149302948 
0.2008921447 
0.2668055149 
0.2076021163 
0.2425618318 
0.2943268269 
0.2025113712 
0.2873466778 
0.197267252 
0.3193760355 
0.2559060062 
0.2384668805 
0.2822602219 
0.2120081505 
0.1617213665 
0.2304807402 
0.2327956982 
0.2379955209 
0.1825045375 
0.2559875143 
0.2163360936 
0.2451326511 
0.2645584082 
0.1969380989 
0.1877674837 
0.2609025889 
0.222516977 
0.2271899555 
0.2529405382 
0.1955943264 
0.2307146337 
0.2294998027 
0.3493332954 
0.2446939128 
0.2533133326 
0.2068239488 
0.2473940101 
0.264514495 
0.2450346337 
0.263563078 
0.2253905663 
0.2151495307 
0.2004590165 
0.2711610372 
0.2659227277 
0.3677203048 
0.2264809398 
0.28227127 
0.1907221652 
0.2548660939 
0.2637428569 
0.2371249967 
0.3913936383 
0.2262360856 
0.3216477784 
0.2666510656 
0.266114647 
0.2567020924 
0.372172877 
0.2451658276 
0.1906075619 
0.2173972058 
0.237600715 
0.1774618638 
0.2591216303 
0.3221053233 
0.2823473835 
0.308717744 
0.2323287314 
0.2602014003 
0.2753467779 
0.2642423977 
0.1920688265 
0.3089309344 
0.1955840178 
0.1825667275 
0.2656879536 
0.3817668567 
0.2450283552 
0.2453034516 
0.202054775 
0.247494328 
0.3376126722 
0.2446282097 
0.2881757783 
0.2569493247 
0.3151670324 
0.229367692 
0.3220749599 
0.3320457072 
0.2359065621 
0.2309648241 
0.2105082765 
0.2897398335 
0.2049760577 
0.2114713297 
0.2372840457 
0.3153235728 
0.2884231157 
0.197287272 
0.1923560424 
0.2267377691 
0.2683749187 
0.204818795 
0.2291133506 
0.274322707 
0.3042919859 
0.2065896967 
0.2674201399 
0.1339459179 
0.2020665577 
0.261016054 
0.2585830069 
0.2165952106 
0.2703678038 
0.2273189761 
0.2575502856 
0.2223698338 
0.2356502107 
0.1652937206 
0.2105021282 
0.2370453015 
0.2225374672 
0.1931893488 
0.2607603515 
0.2656588983 
0.2475938013 
0.2419336626 
0.2185312673 
0.2116402591 
0.1669482656 
0.1871512945 
0.2618816451 
0.2513486065 
0.2075586048 
0.23318575 
0.2489852572 
0.1956238028 
0.2229739278 
0.323611513 
0.2062091926 
0.3095869978 
0.2004378201 
0.2360571988 
0.2921122253 
0.2147698605 
0.2366826011 
0.1572454802 
0.2356378868 
0.332596604 
0.259714807 
0.280411601 
0.2934031893 
0.2367200024 
0.2583960336 