# vtk DataFile Version 3.0
MOAB 4.8.3pre
ASCII
DATASET UNSTRUCTURED_GRID
POINTS 11245 double
0.856077969 -1.01774025 -60.9600182
0.856077969 0.182259783 -60.9600182
0.856077969 -1.01774025 60.9599991
0.856077969 0.182259783 60.9599991
0.431813896 -0.842004299 -60.9600182
0.256077975 -0.417740226 -60.9600182
0.431813896 0.00652385736 -60.9600182
1.28034198 0.00652385736 -60.9600182
1.45607793 -0.417740226 -60.9600182
1.28034198 -0.842004299 -60.9600182
0.856077969 -1.01774025 -60.4742813
0.856077969 -1.01774025 -59.9885445
0.856077969 -1.01774025 -59.5028076
0.856077969 -1.01774025 -59.0170708
0.856077969 -1.01774025 -58.5313339
0.856077969 -1.01774025 -58.0455971
0.856077969 -1.01774025 -57.5598602
0.856077969 -1.01774025 -57.0741234
0.856077969 -1.01774025 -56.5883865
0.856077969 -1.01774025 -56.1026497
0.856077969 -1.01774025 -55.6169128
0.856077969 -1.01774025 -55.131176
0.856077969 -1.01774025 -54.6454391
0.856077969 -1.01774025 -54.1596985
0.856077969 -1.01774025 -53.6739616
0.856077969 -1.01774025 -53.1882248
0.856077969 -1.01774025 -52.7024879
0.856077969 -1.01774025 -52.2167511
0.856077969 -1.01774025 -51.7310143
0.856077969 -1.01774025 -51.2452774
0.856077969 -1.01774025 -50.7595406
0.856077969 -1.01774025 -50.2738037
0.856077969 -1.01774025 -49.7880669
0.856077969 -1.01774025 -49.30233
0.856077969 -1.01774025 -48.8165932
0.856077969 -1.01774025 -48.3308563
0.856077969 -1.01774025 -47.8451157
0.856077969 -1.01774025 -47.3593788
0.856077969 -1.01774025 -46.873642
0.856077969 -1.01774025 -46.3879051
0.856077969 -1.01774025 -45.9021683
0.856077969 -1.01774025 -45.4164314
0.856077969 -1.01774025 -44.9306946
0.856077969 -1.01774025 -44.4449577
0.856077969 -1.01774025 -43.9592209
0.856077969 -1.01774025 -43.473484
0.856077969 -1.01774025 -42.9877472
0.856077969 -1.01774025 -42.5020103
0.856077969 -1.01774025 -42.0162735
0.856077969 -1.01774025 -41.5305328
0.856077969 -1.01774025 -41.044796
0.856077969 -1.01774025 -40.5590591
0.856077969 -1.01774025 -40.0733223
0.856077969 -1.01774025 -39.5875854
0.856077969 -1.01774025 -39.1018486
0.856077969 -1.01774025 -38.6161118
0.856077969 -1.01774025 -38.1303749
0.856077969 -1.01774025 -37.6446381
0.856077969 -1.01774025 -37.1589012
0.856077969 -1.01774025 -36.6731644
0.856077969 -1.01774025 -36.1874275
0.856077969 -1.01774025 -35.7016907
0.856077969 -1.01774025 -35.2159538
0.856077969 -1.01774025 -34.7302132
0.856077969 -1.01774025 -34.2444763
0.856077969 -1.01774025 -33.7587395
0.856077969 -1.01774025 -33.2730026
0.856077969 -1.01774025 -32.7872658
0.856077969 -1.01774025 -32.3015289
0.856077969 -1.01774025 -31.8157921
0.856077969 -1.01774025 -31.3300552
0.856077969 -1.01774025 -30.8443184
0.856077969 -1.01774025 -30.3585815
0.856077969 -1.01774025 -29.8728428
0.856077969 -1.01774025 -29.3871059
0.856077969 -1.01774025 -28.9013691
0.856077969 -1.01774025 -28.4156322
0.856077969 -1.01774025 -27.9298954
0.856077969 -1.01774025 -27.4441586
0.856077969 -1.01774025 -26.9584198
0.856077969 -1.01774025 -26.472683
0.856077969 -1.01774025 -25.9869461
0.856077969 -1.01774025 -25.5012093
0.856077969 -1.01774025 -25.0154724
0.856077969 -1.01774025 -24.5297356
0.856077969 -1.01774025 -24.0439987
0.856077969 -1.01774025 -23.55826
0.856077969 -1.01774025 -23.0725231
0.856077969 -1.01774025 -22.5867863
0.856077969 -1.01774025 -22.1010494
0.856077969 -1.01774025 -21.6153126
0.856077969 -1.01774025 -21.1295757
0.856077969 -1.01774025 -20.6438389
0.856077969 -1.01774025 -20.1581001
0.856077969 -1.01774025 -19.6723633
0.856077969 -1.01774025 -19.1866264
0.856077969 -1.01774025 -18.7008896
0.856077969 -1.01774025 -18.2151527
0.856077969 -1.01774025 -17.7294159
0.856077969 -1.01774025 -17.2436771
0.856077969 -1.01774025 -16.7579403
0.856077969 -1.01774025 -16.2722034
0.856077969 -1.01774025 -15.7864666
0.856077969 -1.01774025 -15.3007298
0.856077969 -1.01774025 -14.814992
0.856077969 -1.01774025 -14.3292551
0.856077969 -1.01774025 -13.8435183
0.856077969 -1.01774025 -13.3577814
0.856077969 -1.01774025 -12.8720436
0.856077969 -1.01774025 -12.3863068
0.856077969 -1.01774025 -11.9005699
0.856077969 -1.01774025 -11.4148321
0.856077969 -1.01774025 -10.9290953
0.856077969 -1.01774025 -10.4433584
0.856077969 -1.01774025 -9.95762062
0.856077969 -1.01774025 -9.47188377
0.856077969 -1.01774025 -8.98614693
0.856077969 -1.01774025 -8.50041008
0.856077969 -1.01774025 -8.01467228
0.856077969 -1.01774025 -7.52893543
0.856077969 -1.01774025 -7.04319811
0.856077969 -1.01774025 -6.55746126
0.856077969 -1.01774025 -6.07172394
0.856077969 -1.01774025 -5.58598709
0.856077969 -1.01774025 -5.10024977
0.856077969 -1.01774025 -4.61451244
0.856077969 -1.01774025 -4.1287756
0.856077969 -1.01774025 -3.64303827
0.856077969 -1.01774025 -3.15730119
0.856077969 -1.01774025 -2.6715641
0.856077969 -1.01774025 -2.18582702
0.856077969 -1.01774025 -1.70008981
0.856077969 -1.01774025 -1.21435273
0.856077969 -1.01774025 -0.728615582
0.856077969 -1.01774025 -0.242878437
0.856077969 -1.01774025 0.242858693
0.856077969 -1.01774025 0.728595853
0.856077969 -1.01774025 1.21433294
0.856077969 -1.01774025 1.70007014
0.856077969 -1.01774025 2.18580723
0.856077969 -1.01774025 2.67154431
0.856077969 -1.01774025 3.1572814
0.856077969 -1.01774025 3.64301872
0.856077969 -1.01774025 4.12875557
0.856077969 -1.01774025 4.61449289
0.856077969 -1.01774025 5.10023022
0.856077969 -1.01774025 5.58596706
0.856077969 -1.01774025 6.07170439
0.856077969 -1.01774025 6.55744123
0.856077969 -1.01774025 7.04317856
0.856077969 -1.01774025 7.52891588
0.856077969 -1.01774025 8.01465321
0.856077969 -1.01774025 8.50039005
0.856077969 -1.01774025 8.9861269
0.856077969 -1.01774025 9.47186375
0.856077969 -1.01774025 9.95760155
0.856077969 -1.01774025 10.4433384
0.856077969 -1.01774025 10.9290752
0.856077969 -1.01774025 11.414813
0.856077969 -1.01774025 11.9005499
0.856077969 -1.01774025 12.3862867
0.856077969 -1.01774025 12.8720245
0.856077969 -1.01774025 13.3577614
0.856077969 -1.01774025 13.8434982
0.856077969 -1.01774025 14.3292351
0.856077969 -1.01774025 14.8149729
0.856077969 -1.01774025 15.3007097
0.856077969 -1.01774025 15.7864466
0.856077969 -1.01774025 16.2721844
0.856077969 -1.01774025 16.7579212
0.856077969 -1.01774025 17.2436581
0.856077969 -1.01774025 17.7293949
0.856077969 -1.01774025 18.2151318
0.856077969 -1.01774025 18.7008705
0.856077969 -1.01774025 19.1866074
0.856077969 -1.01774025 19.6723442
0.856077969 -1.01774025 20.1580811
0.856077969 -1.01774025 20.6438179
0.856077969 -1.01774025 21.1295547
0.856077969 -1.01774025 21.6152916
0.856077969 -1.01774025 22.1010303
0.856077969 -1.01774025 22.5867672
0.856077969 -1.01774025 23.072504
0.856077969 -1.01774025 23.5582409
0.856077969 -1.01774025 24.0439777
0.856077969 -1.01774025 24.5297146
0.856077969 -1.01774025 25.0154533
0.856077969 -1.01774025 25.5011902
0.856077969 -1.01774025 25.986927
0.856077969 -1.01774025 26.4726639
0.856077969 -1.01774025 26.9584007
0.856077969 -1.01774025 27.4441376
0.856077969 -1.01774025 27.9298744
0.856077969 -1.01774025 28.4156132
0.856077969 -1.01774025 28.90135
0.856077969 -1.01774025 29.3870869
0.856077969 -1.01774025 29.8728237
0.856077969 -1.01774025 30.3585606
0.856077969 -1.01774025 30.8442974
0.856077969 -1.01774025 31.3300343
0.856077969 -1.01774025 31.815773
0.856077969 -1.01774025 32.3015099
0.856077969 -1.01774025 32.7872467
0.856077969 -1.01774025 33.2729836
0.856077969 -1.01774025 33.7587204
0.856077969 -1.01774025 34.2444572
0.856077969 -1.01774025 34.7301941
0.856077969 -1.01774025 35.2159309
0.856077969 -1.01774025 35.7016678
0.856077969 -1.01774025 36.1874046
0.856077969 -1.01774025 36.6731453
0.856077969 -1.01774025 37.1588821
0.856077969 -1.01774025 37.644619
0.856077969 -1.01774025 38.1303558
0.856077969 -1.01774025 38.6160927
0.856077969 -1.01774025 39.1018295
0.856077969 -1.01774025 39.5875664
0.856077969 -1.01774025 40.0733032
0.856077969 -1.01774025 40.5590401
0.856077969 -1.01774025 41.0447769
0.856077969 -1.01774025 41.5305138
0.856077969 -1.01774025 42.0162506
0.856077969 -1.01774025 42.5019875
0.856077969 -1.01774025 42.9877281
0.856077969 -1.01774025 43.473465
0.856077969 -1.01774025 43.9592018
0.856077969 -1.01774025 44.4449387
0.856077969 -1.01774025 44.9306755
0.856077969 -1.01774025 45.4164124
0.856077969 -1.01774025 45.9021492
0.856077969 -1.01774025 46.387886
0.856077969 -1.01774025 46.8736229
0.856077969 -1.01774025 47.3593597
0.856077969 -1.01774025 47.8450966
0.856077969 -1.01774025 48.3308334
0.856077969 -1.01774025 48.8165703
0.856077969 -1.01774025 49.3023109
0.856077969 -1.01774025 49.7880478
0.856077969 -1.01774025 50.2737846
0.856077969 -1.01774025 50.7595215
0.856077969 -1.01774025 51.2452583
0.856077969 -1.01774025 51.7309952
0.856077969 -1.01774025 52.216732
0.856077969 -1.01774025 52.7024689
0.856077969 -1.01774025 53.1882057
0.856077969 -1.01774025 53.6739426
0.856077969 -1.01774025 54.1596794
0.856077969 -1.01774025 54.6454163
0.856077969 -1.01774025 55.1311531
0.856077969 -1.01774025 55.61689
0.856077969 -1.01774025 56.1026306
0.856077969 -1.01774025 56.5883675
0.856077969 -1.01774025 57.0741043
0.856077969 -1.01774025 57.5598412
0.856077969 -1.01774025 58.045578
0.856077969 -1.01774025 58.5313148
0.856077969 -1.01774025 59.0170517
0.856077969 -1.01774025 59.5027885
0.856077969 -1.01774025 59.9885254
0.856077969 -1.01774025 60.4742622
0.431813896 -0.842004299 60.9599991
0.256077975 -0.417740226 60.9599991
0.431813896 0.00652385736 60.9599991
0.856077969 0.182259783 60.4742622
0.856077969 0.182259783 59.9885254
0.856077969 0.182259783 59.5027885
0.856077969 0.182259783 59.0170517
0.856077969 0.182259783 58.5313148
0.856077969 0.182259783 58.045578
0.856077969 0.182259783 57.5598412
0.856077969 0.182259783 57.0741043
0.856077969 0.182259783 56.5883675
0.856077969 0.182259783 56.1026306
0.856077969 0.182259783 55.61689
0.856077969 0.182259783 55.1311531
0.856077969 0.182259783 54.6454163
0.856077969 0.182259783 54.1596794
0.856077969 0.182259783 53.6739426
0.856077969 0.182259783 53.1882057
[...]
CELL_DATA 37829
SCALARS TALLY_TAG double 1
LOOKUP_TABLE default
0.000588360234 
0.000403456534 
0.0001739856078 
0.0004567544749 
0.0003586893233 
0.0005524756185 
0.0001117234618 
0.0003362403258 
0.0003718430801 
0.0001737346161 
0.0004647175563 
0.0002548107032 
0.0001591681082 
0.0003370818262 
0.0002721432623 
0.0002862567748 
0.0003253854829 
0.000344700686 
0.0005841440534 
0.0002690903673 
0.0004645299585 
0.0004722635027 
0.0007116204495 
0.0005022099012 
0.0002413692702 
0.0006617630991 
0.00038430441 
0.0005151124612 
0.0003970227136 
0.0004094803105 
0.0003952206698 
0.000259795146 
0.0003861909358 
0.0002673111826 
0.0002946548808 
0.0004631291252 
0.0004022309295 
0.0005991632668 
0.0004259569416 
0.0005593203154 
0.0006372807523 
0.0005437466825 
0.0002934478739 
0.0004231342582 
0.0002866304765 
0.0003163352906 
0.0003181813044 
0.0005602073336 
0.0004301804562 
0.0005109914106 
0.0002940858747 
0.0003478746487 
0.0006239342489 
0.0006073465506 
0.0002618317283 
0.0007788795027 
0.0006566234938 
0.0001596532039 
0.0003916620685 
0.00042336633 
0.0005598518043 
0.0003381820676 
0.000482253055 
0.0001747891902 
0.0003080677795 
0.0003252274102 
0.0003183714344 
0.0003381026252 
0.0002877185148 
0.0003772411953 
0.0001749142658 
0.0004180245717 
0.000214041591 
0.000236630596 
0.0002679211252 
0.0006634923154 
0.0003051110673 
0.0004423067881 
0.0003297540678 
0.0007316084695 
0.0004527567127 
0.0004456993917 
0.0003171119208 
0.0001629317953 
0.0003628807281 
0.0005133062013 
0.0001983877299 
0.0004163160379 
0.0001602265231 
0.0002850623572 
0.0003750315747 
0.0003602031135 
0.0004652646964 
0.0005871778026 
0.0007099125778 
0.0005029043215 
0.0003736417041 
0.0006356020686 
0.0005173946735 
0.0003405782554 
0.0005173080479 
0.0007070212822 
0.0005423908227 
0.000291829226 
0.0008486609618 
0.0003446106741 
0.0005478434919 
0.0002651533334 
0.0004141998275 
0.000289083486 
0.0002517843032 
0.0002215569017 
0.0003186534342 
0.000213814726 
0.0006893986624 
0.0005977368403 
0.0005214730318 
0.000538744181 
0.0004295326689 
0.0004747502314 
0.0003394207025 
0.0003981395889 
0.0003948633717 
0.0002754288798 
0.0003802999202 
0.0002830417746 
0.0003223353464 
0.0003600476992 
0.0005300891599 
0.00025405329 
0.0004058688543 
0.0003669948966 
0.0003063284458 
0.0005632407555 
0.0004093336427 
0.0003215875962 
0.0002408953522 
0.0003284808505 
0.0005717101137 
0.000720061874 
0.0003658045748 
0.0004712841823 
0.000600858696 
0.0007853051594 
0.0002857897605 
0.0007175066255 
0.0005583828502 
0.000203350589 
0.000445498762 
0.0001555274743 
0.0002869801574 
0.0003520605806 
0.0002666012312 
0.000145670709 
0.0005263846295 
0.0005809876443 
0.0004498022885 
0.0003712695291 
0.0004467227699 
0.0002150709105 
0.0003153787738 
0.0002641413111 
0.0002947577164 
0.0001969376233 
0.00044746934 
0.0002514096901 
0.0006255814861 
0.0005602832853 
0.000646281759 
0.0001072390909 
0.0006095271276 
0.0007129924986 
0.0001825608485 
0.0007189804636 
0.0004068394945 
0.0007503247071 
0.0005985675964 
0.0007589481382 
0.0004044733598 
0.0006267273711 
0.0004429712832 
0.001021513022 
0.0004628564049 
0.0004981456005 
0.0001813847836 
0.0002243289249 
0.0002934797615 
0.0001921537156 
0.0002771048279 
0.0002559289905 
0.0001054342994 
0.0002323623122 
0.0001373805521 
0.0001669618004 
0.0004767487457 
0.0004446351689 
0.0003898872959 
0.0003731452621 
0.0002891357902 
0.0003791288772 
0.0004642235367 
0.0002931702471 
0.0004404261732 
0.0004213949336 
0.0003297351464 
0.0002760333074 
0.0003585000656 
0.0004106985132 
0.0003948298989 
0.0005357224328 
0.0004155479148 
0.000192935264 
0.0004209808427 
0.0001889880402 
0.0001667074652 
0.0004362781372 
0.000258653968 
0.0002339075353 
0.0002438537979 
0.0006054847218 
0.0008960191565 
0.0004547114775 
0.0005257646127 
0.0004730957596 
0.0003692543574 
0.0002980630932 
0.0002175494334 
0.0003947835223 
0.0005030359525 
0.0003046700659 
0.0005135356102 
0.0005758764089 
0.0003141585159 
0.0004002122554 
0.0004998690566 
0.0009114304066 
0.0008802395614 
0.000458924058 
0.0002319672216 
0.0003578938419 
0.0002280558998 
0.0003075917973 
0.0003157468388 
0.0004889640512 
0.0007177823734 
0.0007161479142 
0.0001565568487 
0.0005572841951 
0.0004051924538 
0.0004950736378 
0.0003144327995 
0.0005049545679 
0.0005326289472 
0.0003199793336 
0.0005912679029 
0.0002060658753 
0.0007539411699 
0.000429450959 
0.0007015165532 
0.0004781813011 
0.0003237023854 
0.000720436562 
0.0005100060601 
0.0005669662286 
0.0006961782754 
0.0004287446043 
0.0009014835074 
0.0004330854014 
0.0006573506653 
0.0004947030577 
0.0002803254496 
0.0007131033421 
0.0004765074387 
0.0002202435454 
0.0004067085229 
0.0003977706428 
0.0006250040427 
0.0003403293698 
0.0003266251429 
0.0002570831429 
0.0004964767342 
0.0007171049299 
0.0004143975968 
0.0003119749055 
0.0001507388353 
0.0003252424334 
0.000406352977 
0.0005046495506 
0.0006041913487 
0.0003241473014 
0.0003027559977 
0.0008074915387 
0.0003779099583 
0.000496168774 
0.0004397580762 
0.0004967522304 
0.0002876470375 
0.0003777235336 
0.0005560130897 
0.0003484122309 
0.0005193616767 
0.000312791272 
0.0004835230231 
0.0004845164956 
0.0002782936689 
0.0001661614603 
0.0004394483023 
0.0003833797501 
0.0004835209639 
0.0002340672791 
0.0003242215468 
0.000514959276 
0.0003815527937 
0.0004686123337 
0.0007015047222 
0.0006101907583 
0.0002683006266 
0.000491554222 
0.0003060312637 
0.0004978933755 
0.0002316148869 
0.000288739633 
0.000291198145 
0.0002741260202 
0.0003034577254 
0.0004016247984 
0.0001707383189 
0.0003338395882 
0.000164931096 
0.0003619817968 
0.0004595642007 
0.0004371700862 
0.0005773052552 
0.0005074643892 
0.0004938478349 
0.0002671479415 
0.0005889458305 
0.0004192281591 
0.0001900136307 
0.0003039124882 
0.0002187408909 
0.0004957131501 
0.000359371401 
0.0005621553676 
0.000665376555 
0.000365381085 
0.0004123674549 
0.0005960860326 
0.0006962370638 
0.0006510826528 
0.0003655667531 
0.0004558948078 
0.0004693866528 
0.0007316249255 
0.0003151015441 
0.0004031714803 
0.0003293093872 
0.0004516791967 
0.0003599169655 
0.0003162488983 
0.0003260909207 
0.0003080382269 
0.0003596750643 
0.0004989648151 
0.0006684960278 
0.000278281958 
0.0002230663492 
0.0003289269473 
0.00036964051 
0.0003168208581 
0.0004281308354 
0.0005179407102 
0.000492513188 
0.0003619797226 
0.0002442581443 
0.000490617589 
0.0004947774812 
0.0004542111228 
0.0007382261619 
0.0004638535628 
0.0003904727382 
0.0006728039535 
0.0001832240049 
0.0002770771758 
0.0007677965924 
0.0003676398881 
0.0006138074417 
0.000673572576 
0.0002904707432 
0.0006047860138 
0.0008708568613 
0.00068891113 
0.0002590123562 
0.0007464440954 
0.0006020336636 
0.0002693041471 
0.0003228665234 
0.0001932883293 
0.0002196426858 
6.285871492e-05 
0.0002684242897 
0.0003119824543 
0.0002564698151 
0.0002589675076 
0.0004395702134 
0.0005270116805 
0.0001961031216 
0.0002307274649 
0.0004645136438 
0.0003458634348 
0.0003660795281 
0.0003161587082 
0.0004535955246 
0.0002457703171 
0.0001224218103 
0.0004299302796 
0.000264836874 
0.0003471206024 
0.0001975128164 
0.0002284304202 
0.0002360837411 
0.0006213960624 
0.0006444188745 
0.0007676351449 
0.0004628911742 
0.0002843490617 
0.0007005744676 
0.00042130065 
0.0005054231697 
0.0003829176487 
0.00026156549 
0.0002911548957 
0.0003106228955 
0.000370171012 
0.0004687440095 
0.0003440074485 
0.0002943089431 
0.0005835416772 
0.0003081558294 
0.0003751699622 
0.0002752107626 
0.0003326839635 
0.0003650735732 
0.0003696067059 
0.0003822863105 
0.0001582165611 
0.0002009011602 
0.0002953449113 
0.0001676758135 
0.0002485320539 
0.0005660368378 
0.000428892613 
0.0003862451081 
0.0002911075605 
0.0004853068311 
0.0003117903252 
0.0002991051869 
0.000262389898 
0.0003318680243 
0.0001931956756 
0.0003383051138 
0.0002400645321 
0.0006269482232 
0.0005506848145 
0.0006995306445 
0.0003141669645 
0.0002937733666 
0.0001391951738 
0.0003790523134 
0.0005727381249 
0.0002291716171 
0.0002995238375 
0.0004340977551 
0.0003735082043 
0.0005464946408 
0.0005260087881 
0.0003354072456 
0.0003304806138 
0.0003200236203 
0.0003986995043 
0.0004099435643 
0.0003040830206 
0.0008381174384 
0.0004421940033 
0.0003260910644 
0.0001805665551 
0.000527585213 
0.0003719488668 
0.0005311441774 
0.000135428341 
0.0003856029598 
0.0004281202709 
0.0002353744268 
0.0003171195751 
0.0006613783978 
0.0004378538207 
0.0001687146458 
0.0002461471738 
0.0003228357169 
0.0003241557777 
0.0002956681881 
0.0008852719026 
0.0003758165647 
0.0006023883945 
0.0006488919147 
0.0005444628195 
0.0003479406959 
0.0002283034785 
0.0001408465548 
0.0002278414359 
0.0002914200107 
0.0004043868261 
0.0003942361367 
0.0002667752447 
0.0004221738424 
0.0009883122665 
0.0004231169145 
0.0006317138364 
0.0004567880136 
0.0002586692234 
0.0002677439856 
0.0003804382819 
0.0003290045519 
0.0003877014238 
0.000420309852 
0.0002367285364 
0.0004923462759 
0.0006632105266 
0.000422629158 
0.00031947153 
0.000275855155 
0.0007166949372 
0.0003192042869 
0.0003380778991 
0.0004731668903 
0.0003634434577 
0.0003664542926 
0.0003408422568 
0.0002440053119 
0.0003777810916 
0.0002129444217 
0.0002968393405 
0.0002685989748 
0.000610150372 
0.0003748325118 
0.0002936129678 
0.0004403130767 
0.0003180256359 
0.0003803807951 
0.0002874866849 
0.0002935388219 
0.0001977017673 
0.0002814353915 
0.0002602141176 
0.0005023626724 
0.0007050879092 
0.0005368260899 
0.0005031331088 
0.0005843189588 
0.0008529494782 
0.0003451909392 
0.0003830450477 
0.0002982664882 
0.0003765934543 
0.0003326883073 
0.0003710302051 
0.0002847098891 
0.0002501106944 
0.0002831217503 
0.0006364688026 
0.0004711106138 
0.0009730450699 
0.0005661396273 
0.0004753741005 
0.0002819573914 
0.0005865796305 
0.0006437765391 
0.0002851969047 
0.0002215332436 
0.0003003669869 
0.0002986578602 
0.0002013950779 
0.0001354852574 
0.0002628708266 
8.075166815e-05 
0.0004517559521 
0.0005149575866 
0.0004932883914 
0.0003695838266 
0.0004151734353 
0.0005360865844 
0.0003457656885 
0.0005988180188 
0.0004009548354 
0.000259132527 
0.0001886210087 
0.0004022371368 
0.0003167362564 
0.0002150691059 
0.0005133654553 
0.000603595809 
0.0004654545116 
0.0004935674436 
0.0007228221373 
0.0006378578116 
0.0003903182582 
0.0006731049267 
0.000567975294 
0.0003299329674 
0.0003331052144 
0.0002214966999 
0.0002051305549 
0.0001911165651 
0.0005630350498 
0.0003461008594 
0.0002660613315 
0.0003548047906 
0.0008171656252 
0.0006212141855 
0.0004357990762 
0.0004246963328 
0.000418418592 
0.0003716255408 
0.0003460350053 
0.0002616051968 
0.0003817413363 
0.0007657267059 
0.0005523089114 
0.0002900635912 
0.000333441543 
0.0004781501494 
0.0003424245656 
0.0005085017916 
0.0006094814935 
0.0005439035346 
0.0003632276883 
0.0002021373783 
0.0003300002868 
0.0003265824443 
0.0004228027933 
0.0004499292012 
0.0002879800748 
0.0002449872303 
0.0002069114769 
0.0004693787352 
0.0003902512948 
0.0003741920191 
0.0005428475609 
0.0005473682278 
0.0005168002541 
0.000427171403 
0.0004647876813 
0.0006194675521 
0.0005449370686 
0.0004199814021 
0.0005039338629 
0.0002511082008 
0.0004735314776 
0.0003712547367 
0.0004339810013 
0.0003849091201 
0.0004179825921 
0.0004387794653 
0.0002798330843 
0.0002404168283 
0.0005050130167 
0.0003452934083 
0.0001345049351 
0.0003306887029 
0.0002277406609 
0.0002860050975 
0.0002988661891 
0.0003621324719 
0.0002430006105 
0.0002479840181 
0.0003834820305 
0.000304986699 
0.0002094023964 
0.0003127462897 
0.0002156039131 
0.0002263483282 
0.0003436119748 
0.000442120188 
0.0005413232771 
0.00043550743 
0.0003819122596 
0.00027942292 
0.0001484644597 
0.0003754578962 
0.00022008646 
0.000426801461 
0.0004895433141 
0.0002890284316 
0.0004360037157 
0.0002723887994 
0.0002433646705 
0.0001998397757 
0.0002567431763 
9.511753313e-05 
0.0003424889554 
0.0003448085219 
0.0002165721258 
0.0003669748756 
0.0001377230389 
0.000308768044 
0.0006206048033 
0.0004828903706 
0.0001763542965 
0.0002710681215 
0.0001907497632 
0.0003610236693 
0.0003197875731 
0.0006035553151 
0.0002384917894 
0.0003862763324 
0.0003174999744 
0.0002960719732 
0.0006016048878 
0.0007025862988 
0.0004029871643 
0.0005176581114 
0.0006140117474 
0.0004258089471 
0.0004206705991 
0.0003449434511 
0.0005874367824 
0.0004679941639 
0.0007290948074 
0.0006015953893 
0.0003230162891 
0.0002680139381 
0.0002790699226 
0.0003510683483 
0.000372681499 
0.0002762855947 
0.0004664870188 
0.0004859501809 
0.0005901107715 
0.0003312587069 
0.00048830431 
0.0002260862174 
0.0005172196483 
0.000445008625 
0.0003515901874 
0.0002139194206 
0.0002849687344 
0.0001437533182 
0.0002984217584 
0.0006846747873 
0.0001991609693 
0.0004835014236 
0.0002819510309 
0.000307648459 
0.0003402694433 
0.0004075193058 
0.0004723196484 
0.0002474868856 
0.0003873865185 
0.0004372749698 
0.000245465888 
0.0004864571809 
0.0002767288839 
0.0005614525051 
0.0004691500784 
0.0005558661028 
0.0007426008203 
0.0005793610113 
0.000383218227 
0.0005897403676 
0.0002995906298 
0.0005638874147 
0.0004795123611 
0.0002345956688 
0.0003544169389 
0.0001926594605 
0.0003560262058 
0.0004032694925 
0.0004354649559 
0.0004152377993 
0.0002594241315 
0.0005007216411 
0.0006524662661 
0.0006237838928 
0.0005566850418 
0.0005477848349 
0.0004331327746 
0.0003894090234 
0.0003026846782 
0.0002839941719 
0.0003365483847 
0.0002097260764 
0.0002360236144 
0.0003198998164 
0.0002450448348 
0.0001465849977 
0.0006111153428 
0.0002959967082 
0.0004421152437 
0.0004526076647 
0.000511356799 
0.0005001654378 
0.0003957918561 
0.0002309644498 
0.0003385222657 
0.000111117795 
0.0002665608177 
0.0002907012887 
0.0003515935074 
0.0002251006539 
0.0002673768905 
0.0003623909388 
0.0006337382741 
0.00044116896 
0.0008105780511 
0.0005974043761 
0.0002963241522 
0.0007039845617 
0.0005720605299 
0.0002575001657 
0.0007399743257 
0.000691903507 
0.0006835425798 
0.0004781257155 
0.0006003633546 
0.0003445112744 
0.0006955459832 
0.0004953491599 
0.0005558798693 
0.0003921234849 
0.000539393973 
0.0005794333794 
0.0003025970246 
0.0004955450626 
0.0005595436066 
0.0005794409103 
0.0002739006096 
0.0004963892211 
9.077021945e-05 
0.0003010023808 
0.0003351012398 
0.0004186942273 
0.0002498625638 
0.0002378146731 
0.0002443871764 
0.0002043533233 
0.0003123963468 
0.0004055064175 
0.0002465892599 
0.0005262510768 
0.000167984262 
0.0004074779542 
0.0003458430327 
0.0003516548228 
0.0003632654284 
0.0006114157755 
0.0004914026299 
0.0007919865515 
0.0005656412305 
0.0004869386785 
0.0003434938638 
0.000727419248 
0.0003566388914 
0.0003448403421 
0.0002685710667 
0.0004247668006 
0.0004081824296 
0.0001921331994 
0.0003318450838 
0.0006301928995 
0.000497831992 
0.0002977951543 
0.0003756072627 
0.0002810865372 
0.0006632867181 
0.0003776642087 
0.0004365190822 
0.000575070649 
0.0003507780892 
0.0003369558098 
0.0005948575248 
0.0005377024676 
0.0003343148136 
0.000514640547 
0.0004351664739 
0.0006078758983 
0.000397863568 
0.0005107752077 
0.0003330790044 
0.0002218573473 
0.0001849481327 
0.0002316161761 
0.0002804516188 
0.000357474464 
0.0001813460257 
0.0004264016459 
0.0001203323759 
0.0001938658619 
0.0003863716266 
0.0001815665186 
0.0002163885121 
0.0002436813765 
0.0004406182953 
0.0005384146863 
0.0004361250944 
0.0009373773202 
0.0004368098321 
0.0006805506563 
0.0002600632065 
0.0002767190864 
0.0006348795448 
0.000399845724 
0.0003619368446 
0.0006830337126 
0.0004290133327 
0.0005131659042 
0.0001517551674 
0.0004434472424 
0.0004302208466 
0.0002501257462 
0.0004593993625 
0.000380556583 
0.0004953466749 
0.0002952039013 
0.0003565742962 
0.0001771295019 
0.0005482047368 
0.0004346670711 
0.0006837542505 
0.0007863446206 
0.0004919989924 
0.0003308178002 
0.0002989067207 
0.0002449914052 
0.0002944056707 
0.0005971864556 
0.0006212653864 
0.0004813808442 
0.0006224710683 
0.0003363243098 
0.0002023980449 
0.0001869506806 
0.0002467128516 
0.0002863456839 
0.0004277783305 
0.0007255282066 
0.0005854871368 
0.000605113868 
0.0002753022636 
0.0005068402224 
0.0003058711851 
0.0003825919672 
0.0002391890987 
0.0002542614642 
0.0003031759259 
0.0002958388743 
0.0003035725125 
0.0002176861645 
0.0003519320342 
0.0004424159254 
0.0003812005566 
0.000394246725 
0.0002497136061 
0.0006469258867 
0.0007231713014 
0.0005205971229 
0.0004602156691 
0.000458820782 
0.0002863212796 
0.0004144238232 
0.0002718017002 
0.0002720168843 
0.0002393035727 
0.0002948154313 
0.0003768664811 
0.0004011175326 
0.0001782016776 
0.0003485841056 
0.00017900079 
0.0004135225924 
0.000613119414 
0.0004489360476 
0.0005858864004 
0.0004843564202 
0.0005195309075 
0.0003652498116 
0.0006062236013 
0.0004409760347 
0.0003438282587 
0.0004063674416 
0.0004301989721 
0.0003836285471 
0.0006385665892 
0.000311649926 
0.0002430049431 
0.0003563141999 
0.0005361750586 
6.761349294e-05 
0.0003828739434 
0.0007287175905 
0.0007308205252 
0.0005370642438 
0.0004674557051 
0.0005248828301 
0.0004008850955 
0.0001981471302 
0.0003534542154 
0.0003689852486 
0.0003895923658 
0.0002465698242 
0.0004424245293 
0.0003748786199 
0.0005609245717 
0.0002886752963 
0.0004323526407 
0.0003639896217 
0.0002453429761 
9.978223208e-05 
0.0004235417858 
0.0003567757586 
0.0003369938774 
0.0002321873796 
0.0004218946111 
0.0004126959877 
0.0002582651479 
0.0005793385658 
0.0007302606988 
0.0003305016024 
0.000722625651 
0.0002963177787 
0.0004479168203 
0.0002507401511 
0.0003106604141 
0.0004212043906 
0.0002316111391 
0.0003700317106 
0.0007370881366 
0.0005903887211 
0.0004780451623 
0.0004326442953 
0.000347181592 
0.0003351500461 
0.0005562862222 
0.0004726801106 
0.000382296822 
0.0003385759047 
0.0002714475696 
0.0004011725674 
0.0003019468711 
0.0001624655109 
0.0001684548407 
0.0004275150009 
0.0005749631137 
0.0005917425406 
0.0003961774304 
0.0005060032681 
0.0003983073014 
0.0005019590053 
0.0003040337788 
0.000629339805 
0.0003706380552 
0.0007420922171 
0.0002994679025 
0.0004750112607 
0.0005665828077 
0.0002457831065 
0.0003230338903 
0.000751275477 
0.0002187186669 
0.0004400433296 
0.0004535883783 
0.000386842206 
0.0003850075989 
0.0006057736736 
0.0004704228591 
0.0004388176874 
0.0005729263518 
0.0007271275902 
0.0004009478458 
0.0004310515647 
0.0006692532348 
0.0005899348592 
0.0002540467879 
0.0002639040754 
0.0004990202365 
0.0005076758737 
0.0006680966846 
0.0002356932174 
0.0004407159435 
0.0004290449192 
0.0004461976792 
0.0003228145708 
0.0001302793107 
0.0002833029488 
0.0003599237276 
0.0002143696971 
0.0003786324466 
0.0005705050917 
0.0003086083322 
0.0004200350122 
0.0002638342473 
0.0001477727001 
0.0001884416875 
0.0002471805715 
0.0004618162521 
0.0002219513272 
0.000516037566 
0.0004557561726 
0.0002580108377 
0.0004251993703 
0.0003377338538 
0.0006201403095 
0.0004298460513 
0.0006435940139 
0.0006447744864 
0.000701881773 
0.0005662901212 
0.0002056825683 
0.000435424622 
0.0004472861672 
0.0001768841533 
0.0001778333077 
0.0001968498593 
0.0004945648625 
0.0003531233355 
0.000259624844 
0.0003647968503 
0.0001844205951 
0.0002038732135 
0.0004177116242 
0.000202549531 
0.0003836187098 
0.0001800293137 
0.0003841742202 
0.0006856757522 
0.0005044085 
0.0002907740301 
0.0004188658707 
0.0004265730914 
0.0004061793997 
0.0004225927533 
0.0005535037024 
0.0005310727652 
0.0006597890554 
0.0009369831102 
0.0004768376347 
0.0007305799118 
0.0003643686126 
0.0007792357611 
0.0003116366828 
0.0004581717991 
0.0002812103816 
0.0004206244485 
0.0002868744583 
0.000196372316 
0.000513036081 
0.0004344050744 
0.0002581264635 
0.0003789907155 
0.0002271953741 
0.0004789777371 
0.0003328339413 
0.0003578673153 
0.0005567751107 
0.0002842819092 
0.0001777292424 
0.000245259039 
0.0002253961411 
0.0002617387705 
0.0005385306483 
0.000330163412 
0.0003978890778 
0.0005207865432 
0.0003213753498 
0.0003311496635 
0.0006592552895 
0.0005296818693 
0.0005972323378 
0.0006967394471 
0.0006773313884 
0.0002050886755 