# vtk DataFile Version 3.0
MOAB 4.1.0pre
ASCII
DATASET UNSTRUCTURED_GRID
POINTS 15725 double
-0.441866696 -1.43915224 -60.9600182
-0.441866696 -0.239152238 -60.9600182
-0.441866696 -0.239152238 60.9599991
-0.441866696 -1.43915224 60.9599991
-0.840952218 -0.152589679 -60.9600182
-0.840952218 1.04741037 -60.9600182
-0.840952218 1.04741037 60.9599991
-0.840952218 -0.152589679 60.9599991
0.445610315 0.246495873 -60.9600182
0.445610315 1.44649589 -60.9600182
0.445610315 1.44649589 60.9599991
0.445610315 0.246495873 60.9599991
0.00187181414 1.90867186 60.9599991
0.00187181414 1.90867186 -60.9600182
0.00187181414 -1.90132821 -60.9600182
0.00187181414 -1.90132821 60.9599991
0.856077969 0.182259783 60.9599991
0.856077969 -1.01774025 60.9599991
0.856077969 0.182259783 -60.9600182
0.856077969 -1.01774025 -60.9600182
-0.866130769 -1.26341629 -60.9600182
-1.04186666 -0.839152217 -60.9600182
-0.866130769 -0.414888173 -60.9600182
-0.441866696 -0.239152238 -60.4742813
-0.441866696 -0.239152238 -59.9885445
-0.441866696 -0.239152238 -59.5028076
-0.441866696 -0.239152238 -59.0170708
-0.441866696 -0.239152238 -58.5313339
-0.441866696 -0.239152238 -58.0455971
-0.441866696 -0.239152238 -57.5598602
-0.441866696 -0.239152238 -57.0741234
-0.441866696 -0.239152238 -56.5883865
-0.441866696 -0.239152238 -56.1026497
-0.441866696 -0.239152238 -55.6169128
-0.441866696 -0.239152238 -55.131176
-0.441866696 -0.239152238 -54.6454391
-0.441866696 -0.239152238 -54.1596985
-0.441866696 -0.239152238 -53.6739616
-0.441866696 -0.239152238 -53.1882248
-0.441866696 -0.239152238 -52.7024879
-0.441866696 -0.239152238 -52.2167511
-0.441866696 -0.239152238 -51.7310143
-0.441866696 -0.239152238 -51.2452774
-0.441866696 -0.239152238 -50.7595406
-0.441866696 -0.239152238 -50.2738037
-0.441866696 -0.239152238 -49.7880669
-0.441866696 -0.239152238 -49.30233
-0.441866696 -0.239152238 -48.8165932
-0.441866696 -0.239152238 -48.3308563
-0.441866696 -0.239152238 -47.8451157
-0.441866696 -0.239152238 -47.3593788
-0.441866696 -0.239152238 -46.873642
-0.441866696 -0.239152238 -46.3879051
-0.441866696 -0.239152238 -45.9021683
-0.441866696 -0.239152238 -45.4164314
-0.441866696 -0.239152238 -44.9306946
-0.441866696 -0.239152238 -44.4449577
-0.441866696 -0.239152238 -43.9592209
-0.441866696 -0.239152238 -43.473484
-0.441866696 -0.239152238 -42.9877472
-0.441866696 -0.239152238 -42.5020103
-0.441866696 -0.239152238 -42.0162735
-0.441866696 -0.239152238 -41.5305328
-0.441866696 -0.239152238 -41.044796
-0.441866696 -0.239152238 -40.5590591
-0.441866696 -0.239152238 -40.0733223
-0.441866696 -0.239152238 -39.5875854
-0.441866696 -0.239152238 -39.1018486
-0.441866696 -0.239152238 -38.6161118
-0.441866696 -0.239152238 -38.1303749
-0.441866696 -0.239152238 -37.6446381
-0.441866696 -0.239152238 -37.1589012
-0.441866696 -0.239152238 -36.6731644
-0.441866696 -0.239152238 -36.1874275
-0.441866696 -0.239152238 -35.7016907
-0.441866696 -0.239152238 -35.2159538
-0.441866696 -0.239152238 -34.7302132
-0.441866696 -0.239152238 -34.2444763
-0.441866696 -0.239152238 -33.7587395
-0.441866696 -0.239152238 -33.2730026
-0.441866696 -0.239152238 -32.7872658
-0.441866696 -0.239152238 -32.3015289
-0.441866696 -0.239152238 -31.8157921
-0.441866696 -0.239152238 -31.3300552
-0.441866696 -0.239152238 -30.8443184
-0.441866696 -0.239152238 -30.3585815
-0.441866696 -0.239152238 -29.8728428
-0.441866696 -0.239152238 -29.3871059
-0.441866696 -0.239152238 -28.9013691
-0.441866696 -0.239152238 -28.4156322
-0.441866696 -0.239152238 -27.9298954
-0.441866696 -0.239152238 -27.4441586
-0.441866696 -0.239152238 -26.9584198
-0.441866696 -0.239152238 -26.472683
-0.441866696 -0.239152238 -25.9869461
-0.441866696 -0.239152238 -25.5012093
-0.441866696 -0.239152238 -25.0154724
-0.441866696 -0.239152238 -24.5297356
-0.441866696 -0.239152238 -24.0439987
-0.441866696 -0.239152238 -23.55826
-0.441866696 -0.239152238 -23.0725231
-0.441866696 -0.239152238 -22.5867863
-0.441866696 -0.239152238 -22.1010494
-0.441866696 -0.239152238 -21.6153126
-0.441866696 -0.239152238 -21.1295757
-0.441866696 -0.239152238 -20.6438389
-0.441866696 -0.239152238 -20.1581001
-0.441866696 -0.239152238 -19.6723633
-0.441866696 -0.239152238 -19.1866264
-0.441866696 -0.239152238 -18.7008896
-0.441866696 -0.239152238 -18.2151527
-0.441866696 -0.239152238 -17.7294159
-0.441866696 -0.239152238 -17.2436771
-0.441866696 -0.239152238 -16.7579403
-0.441866696 -0.239152238 -16.2722034
-0.441866696 -0.239152238 -15.7864666
-0.441866696 -0.239152238 -15.3007298
-0.441866696 -0.239152238 -14.814992
-0.441866696 -0.239152238 -14.3292551
-0.441866696 -0.239152238 -13.8435183
-0.441866696 -0.239152238 -13.3577814
-0.441866696 -0.239152238 -12.8720436
-0.441866696 -0.239152238 -12.3863068
-0.441866696 -0.239152238 -11.9005699
-0.441866696 -0.239152238 -11.4148321
-0.441866696 -0.239152238 -10.9290953
-0.441866696 -0.239152238 -10.4433584
-0.441866696 -0.239152238 -9.95762062
-0.441866696 -0.239152238 -9.47188377
-0.441866696 -0.239152238 -8.98614693
-0.441866696 -0.239152238 -8.50041008
-0.441866696 -0.239152238 -8.01467228
-0.441866696 -0.239152238 -7.52893543
-0.441866696 -0.239152238 -7.04319811
-0.441866696 -0.239152238 -6.55746126
-0.441866696 -0.239152238 -6.07172394
-0.441866696 -0.239152238 -5.58598709
-0.441866696 -0.239152238 -5.10024977
-0.441866696 -0.239152238 -4.61451244
-0.441866696 -0.239152238 -4.1287756
-0.441866696 -0.239152238 -3.64303827
-0.441866696 -0.239152238 -3.15730119
-0.441866696 -0.239152238 -2.6715641
-0.441866696 -0.239152238 -2.18582702
-0.441866696 -0.239152238 -1.70008981
-0.441866696 -0.239152238 -1.21435273
-0.441866696 -0.239152238 -0.728615582
-0.441866696 -0.239152238 -0.242878437
-0.441866696 -0.239152238 0.242858693
-0.441866696 -0.239152238 0.728595853
-0.441866696 -0.239152238 1.21433294
-0.441866696 -0.239152238 1.70007014
-0.441866696 -0.239152238 2.18580723
-0.441866696 -0.239152238 2.67154431
-0.441866696 -0.239152238 3.1572814
-0.441866696 -0.239152238 3.64301872
-0.441866696 -0.239152238 4.12875557
-0.441866696 -0.239152238 4.61449289
-0.441866696 -0.239152238 5.10023022
-0.441866696 -0.239152238 5.58596706
-0.441866696 -0.239152238 6.07170439
-0.441866696 -0.239152238 6.55744123
-0.441866696 -0.239152238 7.04317856
-0.441866696 -0.239152238 7.52891588
-0.441866696 -0.239152238 8.01465321
-0.441866696 -0.239152238 8.50039005
-0.441866696 -0.239152238 8.9861269
-0.441866696 -0.239152238 9.47186375
-0.441866696 -0.239152238 9.95760155
-0.441866696 -0.239152238 10.4433384
-0.441866696 -0.239152238 10.9290752
-0.441866696 -0.239152238 11.414813
-0.441866696 -0.239152238 11.9005499
-0.441866696 -0.239152238 12.3862867
-0.441866696 -0.239152238 12.8720245
-0.441866696 -0.239152238 13.3577614
-0.441866696 -0.239152238 13.8434982
-0.441866696 -0.239152238 14.3292351
-0.441866696 -0.239152238 14.8149729
-0.441866696 -0.239152238 15.3007097
-0.441866696 -0.239152238 15.7864466
-0.441866696 -0.239152238 16.2721844
-0.441866696 -0.239152238 16.7579212
-0.441866696 -0.239152238 17.2436581
-0.441866696 -0.239152238 17.7293949
-0.441866696 -0.239152238 18.2151318
-0.441866696 -0.239152238 18.7008705
-0.441866696 -0.239152238 19.1866074
-0.441866696 -0.239152238 19.6723442
-0.441866696 -0.239152238 20.1580811
-0.441866696 -0.239152238 20.6438179
-0.441866696 -0.239152238 21.1295547
-0.441866696 -0.239152238 21.6152916
-0.441866696 -0.239152238 22.1010303
-0.441866696 -0.239152238 22.5867672
-0.441866696 -0.239152238 23.072504
-0.441866696 -0.239152238 23.5582409
-0.441866696 -0.239152238 24.0439777
-0.441866696 -0.239152238 24.5297146
-0.441866696 -0.239152238 25.0154533
-0.441866696 -0.239152238 25.5011902
-0.441866696 -0.239152238 25.986927
-0.441866696 -0.239152238 26.4726639
-0.441866696 -0.239152238 26.9584007
-0.441866696 -0.239152238 27.4441376
-0.441866696 -0.239152238 27.9298744
-0.441866696 -0.239152238 28.4156132
-0.441866696 -0.239152238 28.90135
-0.441866696 -0.239152238 29.3870869
-0.441866696 -0.239152238 29.8728237
-0.441866696 -0.239152238 30.3585606
-0.441866696 -0.239152238 30.8442974
-0.441866696 -0.239152238 31.3300343
-0.441866696 -0.239152238 31.815773
-0.441866696 -0.239152238 32.3015099
-0.441866696 -0.239152238 32.7872467
-0.441866696 -0.239152238 33.2729836
-0.441866696 -0.239152238 33.7587204
-0.441866696 -0.239152238 34.2444572
-0.441866696 -0.239152238 34.7301941
-0.441866696 -0.239152238 35.2159309
-0.441866696 -0.239152238 35.7016678
-0.441866696 -0.239152238 36.1874046
-0.441866696 -0.239152238 36.6731453
-0.441866696 -0.239152238 37.1588821
-0.441866696 -0.239152238 37.644619
-0.441866696 -0.239152238 38.1303558
-0.441866696 -0.239152238 38.6160927
-0.441866696 -0.239152238 39.1018295
-0.441866696 -0.239152238 39.5875664
-0.441866696 -0.239152238 40.0733032
-0.441866696 -0.239152238 40.5590401
-0.441866696 -0.239152238 41.0447769
-0.441866696 -0.239152238 41.5305138
-0.441866696 -0.239152238 42.0162506
-0.441866696 -0.239152238 42.5019875
-0.441866696 -0.239152238 42.9877281
-0.441866696 -0.239152238 43.473465
-0.441866696 -0.239152238 43.9592018
-0.441866696 -0.239152238 44.4449387
-0.441866696 -0.239152238 44.9306755
-0.441866696 -0.239152238 45.4164124
-0.441866696 -0.239152238 45.9021492
-0.441866696 -0.239152238 46.387886
-0.441866696 -0.239152238 46.8736229
-0.441866696 -0.239152238 47.3593597
-0.441866696 -0.239152238 47.8450966
-0.441866696 -0.239152238 48.3308334
-0.441866696 -0.239152238 48.8165703
-0.441866696 -0.239152238 49.3023109
-0.441866696 -0.239152238 49.7880478
-0.441866696 -0.239152238 50.2737846
-0.441866696 -0.239152238 50.7595215
-0.441866696 -0.239152238 51.2452583
-0.441866696 -0.239152238 51.7309952
-0.441866696 -0.239152238 52.216732
-0.441866696 -0.239152238 52.7024689
-0.441866696 -0.239152238 53.1882057
-0.441866696 -0.239152238 53.6739426
-0.441866696 -0.239152238 54.1596794
-0.441866696 -0.239152238 54.6454163
-0.441866696 -0.239152238 55.1311531
-0.441866696 -0.239152238 55.61689
-0.441866696 -0.239152238 56.1026306
-0.441866696 -0.239152238 56.5883675
[...]
CELL_DATA 58178
SCALARS TALLY_TAG double 1
LOOKUP_TABLE default
0.006209607321 
0.005720771604 
0.003364291762 
0.006781276424 
0.009517864009 
0.004501367838 
0.006074691875 
0.003813611889 
0.004456643659 
0.00770028143 
0.003680699974 
0.006084987137 
0.007031251094 
0.01241406173 
0.005112348991 
0.004398551399 
0.007007481157 
0.01002745698 
0.006863106118 
0.00619418494 
0.003930292189 
0.003136904879 
0.006155884322 
0.004660069763 
0.00368473854 
0.004150065717 
0.005689360833 
0.007394559958 
0.007485389881 
0.007726281364 
0.005725438497 
0.00337867747 
0.004990584525 
0.0033533688 
0.00443734148 
0.001961885675 
0.003055565223 
0.008321366956 
0.005162361871 
0.005024367643 
0.003772049528 
0.004533440084 
0.005639719602 
0.006124493022 
0.005157682596 
0.005162104428 
0.002638923772 
0.005542178149 
0.009628877346 
0.004128149125 
0.005104666867 
0.007179940988 
0.01000432693 
0.006016193558 
0.009188135048 
0.01049291521 
0.00612820448 
0.003905927958 
0.006135265226 
0.1381855534 
0.009852369362 
0.005367623198 
0.007106584974 
0.006177759702 
0.007416486761 
0.00696620704 
0.003206562816 
0.006364687089 
0.004313905676 
0.003576903719 
0.00435789109 
0.004352211191 
0.004206073362 
0.009059469901 
0.003656993308 
0.003822402965 
0.00466442981 
0.005037377794 
0.005129583603 
0.004753604271 
0.006273733289 
0.004683949933 
0.006198871854 
0.005440967914 
0.003311610876 
0.002834938097 
0.004629799041 
0.006010779615 
0.004531520329 
0.00297203855 
0.003097923849 
0.007073308748 
0.006595749551 
0.003904585851 
0.006919809848 
0.00326115549 
0.04982621161 
0.01306051904 
0.005135685142 
0.00260999932 
0.004976791677 
0.009762509097 
0.008020830293 
0.003058758122 
0.003514890023 
0.01072450259 
0.01510150354 
0.005414491241 
0.005719199051 
0.006789127454 
0.005131632188 
0.007137949422 
0.004595531838 
0.007178669523 
0.006228202975 
0.003928948394 
0.004322758085 
0.005019394385 
0.004864959496 
0.0109599359 
0.007577723898 
0.007426602263 
0.006461895743 
0.01178069038 
0.005195130637 
0.004482599678 
0.005162399811 
0.006114146184 
0.005053018748 
0.003799716931 
0.004609964746 
0.006067553095 
0.005691669961 
0.003035347599 
0.005603373726 
0.007138675007 
0.004292152352 
0.0039366316 
0.004347926093 
0.006662328306 
0.003116721425 
0.003115570206 
0.003374863091 
0.004635738466 
0.002710773042 
0.008271607917 
0.006157868404 
0.004281788758 
0.01500978312 
0.02649847123 
0.00854210006 
0.002953495148 
0.004228383508 
0.005906081279 
0.003871167841 
0.008647054284 
0.005576617574 
0.005175193164 
0.004987707804 
0.003928961003 
0.005581754753 
0.008793333628 
0.003914986614 
0.01638394286 
0.007759084294 
0.005735377417 
0.007095568554 
0.007091795495 
0.01105878189 
0.00455715694 
0.01273388125 
0.01151278622 
0.007714201881 
0.003928368003 
0.003482623182 
0.005574935915 
0.002185205694 
0.00310482775 
0.002974147528 
0.005116148758 
0.005294733956 
0.005108680845 
0.00891505523 
0.002753753288 
0.003032571694 
0.03476246864 
0.003826547557 
0.002697551379 
0.005344542957 
0.004234568028 
0.003717650012 
0.004260578711 
0.004961133889 
0.004243785431 
0.003974969777 
0.007540822246 
0.008230928713 
0.00752630848 
0.005071066288 
0.006001585059 
0.002067633661 
0.0006171169837 
0.004290803787 
0.02969408252 
0.001868336096 
0.005323401895 
0.002351808083 
0.00484645583 
0.006343882453 
0.02752557703 
0.001759844199 
0.001602561917 
0.007275597471 
0.006589077104 
0.007495318943 
0.004651552225 
0.001973478399 
0.007822779797 
0.04280518239 
0.004366293035 
0.004561227585 
0.004967262699 
0.002873387251 
0.008689294838 
0.005697954798 
0.008020971219 
0.005136423605 
0.004564205615 
0.004422201922 
0.003391422784 
0.005534344435 
0.00791641235 
0.004052787047 
0.004835009836 
0.006752283588 
0.006810227971 
0.003805681305 
0.005153187894 
0.01125174487 
0.007589956875 
0.008285752418 
0.008800481088 
0.006293135588 
0.008483791309 
0.00807643624 
0.009605490134 
0.006544866066 
0.01443529971 
0.07568276271 
0.08566411079 
0.06184837599 
0.02986416777 
0.01995300943 
0.05752910826 
0.08097608408 
0.04686439071 
0.009660897028 
0.00285514459 
0.003515973839 
0.004024381005 
0.006214348697 
0.006063449358 
0.005771791824 
0.004563092904 
0.005281427573 
0.005560823359 
0.00302253079 
0.01023789779 
0.005453537348 
0.005491360489 
0.006029462026 
0.003844322214 
0.00585497731 
0.003248154917 
0.02455143398 
0.005545843958 
0.00432983638 
0.007434140531 
0.003834557889 
0.009982476361 
0.00453794263 
0.004398396014 
0.008071758959 
0.003364091351 
0.005372958492 
0.007486961997 
0.004781886745 
0.006216759037 
0.003701558875 
0.002219582319 
0.0041489129 
0.006081430529 
0.008250432929 
0.005600489948 
0.005030518638 
0.004378097588 
0.007115520923 
0.004560603774 
0.006414621536 
0.003906091397 
0.002553562677 
0.003666313468 
0.006455534038 
0.003059468371 
0.007667686515 
0.004535754059 
0.004272811941 
0.006126427613 
0.004115293975 
0.005692948018 
0.005901448078 
0.005154348557 
0.005464474375 
0.005541485316 
0.009509425743 
0.006577167646 
0.006911061202 
0.005997047521 
0.003611330067 
0.003740804825 
0.004250180671 
0.005621895181 
0.002114472766 
0.003720715337 
0.005741039527 
0.005339250228 
0.005681081929 
0.009977752395 
0.002263831333 
0.02268980949 
0.006604786187 
0.005407088462 
0.006367665616 
0.003973000081 
0.008169955817 
0.003489823589 
0.006433629849 
0.002166557367 
0.00330964714 
0.003160058827 
0.004328438887 
0.007082846606 
0.02647852474 
0.004980358579 
0.004573024519 
0.006072601198 
0.008015199272 
0.005495628152 
0.003383553116 
0.003978747174 
0.005704624574 
0.01100792155 
0.004763970846 
0.007396406578 
0.0347349143 
0.004838730874 
0.007771407267 
0.003822080672 
0.004356559711 
0.004357377919 
0.004529458251 
0.006686907744 
0.02809757577 
0.004463600831 
0.006540130405 
0.008028406365 
0.009021289614 
0.006605331738 
0.008923046014 
0.005624180453 
0.005751924721 
0.002660049224 
0.06078006303 
0.01011815403 
0.004895264762 
0.007266308229 
0.04297406154 
0.008204379001 
0.005583721372 
0.006228852812 
0.008573636276 
0.008969577884 
0.005723865975 
0.02159165359 
0.006423813234 
0.003505223233 
0.006988882602 
0.005742924744 
0.01131403298 
0.005654442593 
0.003931168831 
0.004098358294 
0.004820312678 
0.003978054097 
0.004261684427 
0.006130671085 
0.00517170654 
0.1175447746 
0.05058276507 
0.05152969916 
0.005933553679 
0.01281879557 
0.05076766213 
0.006532652639 
0.03745918096 
0.004492134206 
0.004339490041 
0.007564698278 
0.006315823208 
0.003671222716 
0.005628216564 
0.01199544584 
0.004925975361 
0.003830005817 
0.007439922293 
0.007530098692 
0.002819839872 
0.002571184705 
0.003773527893 
0.006163713093 
0.002462092843 
0.004925347358 
0.003521237944 
0.004765799853 
0.004226039069 
0.003747838441 
0.004222985642 
0.002616811994 
0.002745639756 
0.004850289774 
0.009294458365 
0.006900389592 
0.009070812647 
0.003156091885 
0.004948081454 
0.003552118154 
0.0100482054 
0.007327122569 
0.006845565256 
0.009471422711 
0.0040507908 
0.00174972572 
0.007969399162 
0.007357439858 
0.004044221293 
0.005199153982 
0.0046918331 
0.009601490077 
0.005762974856 
0.002765271431 
0.003354484117 
0.008862392006 
0.003286367381 
0.00444664255 
0.007639414031 
0.006619266068 
0.006615582442 
0.01031123302 
0.002498870593 
0.04371093192 
0.00380253997 
0.003409732712 
0.01012340267 
0.006270713296 
0.004341759741 
0.005720249396 
0.004327060821 
0.007340991387 
0.006737441518 
0.00872863746 
0.005157455125 
0.004178895466 
0.005372527292 
0.008206381972 
0.004688919754 
0.005727446335 
0.005812174419 
0.006798116172 
0.00353963753 
0.003317538954 
0.006687262681 
0.005791139964 
0.005822471986 
0.005110537596 
0.004218861365 
0.004115749819 
0.007081837392 
0.003156647765 
0.004499902842 
0.00421388411 
0.01042844968 
0.003643433465 
0.005786409359 
0.00535208928 
0.01170962941 
0.009065623003 
0.008601070718 
0.01161080176 
0.004439978482 
0.00178587065 
0.005277247895 
0.009766277017 
0.005035696418 
0.0047548774 
0.004686406756 
0.004701565479 
0.006034923552 
0.003834287842 
0.005263885997 
0.008661258658 
0.004160824207 
0.006349356821 
0.005198386211 
0.002771564733 
0.004542809372 
0.003341162655 
0.004601940477 
0.01149418315 
0.006307181731 
0.003762968748 
0.007543946093 
0.006252692246 
0.0267391333 
0.007660343011 
0.01136535314 
0.001552909529 
0.003250169736 
0.005812969603 
0.01828381234 
0.002788267678 
0.004725955541 
0.003565775177 
0.004223712395 
0.007565782403 
0.004114618971 
0.00381462584 
0.00451780269 
0.003265103215 
0.005863994495 
0.007472485612 
0.007069704809 
0.003328736195 
0.004599067745 
0.004559656169 
0.005923983917 
0.005752126304 
0.005381234415 
0.00367683672 
0.006002941907 
0.006401524147 
0.004874001653 
0.004745845546 
0.007046140195 
0.003337678561 
0.007044428096 
0.004447461707 
0.006772524927 
0.003911895267 
0.00454539843 
0.005502965276 
0.006128168875 
0.01055675028 
0.006331654433 
0.008108419872 
0.002706230605 
0.006292266266 
0.002903074366 
0.004938858729 
0.004469063921 
0.002702644486 
0.004702749631 
0.006241754741 
0.003488636343 
0.005336551849 
0.002936614595 
0.01074688324 
0.005833302724 
0.006813088929 
0.002560426744 
0.002476873151 
0.005404491937 
0.004094703156 
0.001858283043 
0.006455817844 
0.006305259667 
0.00748255304 
0.00803626186 
0.008725560947 
0.003349928014 
0.004129310238 
0.004311095418 
0.006106308775 
0.006010458343 
0.004319629674 
0.005672498598 
0.006830892608 
0.003495374182 
0.004353168205 
0.004094768203 
0.002517487879 
0.007314910158 
0.007381122179 
0.005832517783 
0.004070764853 
0.004321681563 
0.004556561209 
0.006274693537 
0.003300313355 
0.009313837618 
0.004064270563 
0.005437443199 
0.003110103057 
0.005352355605 
0.006772039117 
0.003878095969 
0.005074366342 
0.004683985593 
0.008328289114 
0.00429579533 
0.002379731202 
0.003568537541 
0.007047524721 
0.002638438206 
0.00465111097 
0.003900049011 
0.005024843723 
0.006382914311 
0.00945820135 
0.008445605481 
0.004203754372 
0.005172354933 
0.005181513424 
0.005414898386 
0.002757811046 
0.002990981075 
0.004909863016 
0.001834366161 
0.002826374918 
0.0042768259 
0.004635906849 
0.005835973602 
0.004879511779 
0.003236034834 
0.002929790659 
0.006530274203 
0.002056273958 
0.01020200142 
0.002165996917 
0.02218590509 
0.005832799464 
0.005990512577 
0.004063694121 
0.005883200704 
0.002889754536 
0.004362959479 
0.005107005754 
0.007462707409 
0.004118872941 
0.004146510304 
0.00825243019 
0.007833641792 
0.006250001651 
0.005988073517 
0.003947202082 
0.006091320681 
0.003565111155 
0.05164758651 
0.01029412361 
0.006600691553 
0.003299358272 
0.006066055573 
0.00971384339 
0.006584628224 
0.002386824136 
0.005043014662 
0.005647055609 
0.007455616023 
0.008124055979 
0.00286034593 
0.01288902943 
0.006378173399 
0.006531159246 
0.007152808198 
0.007000641065 
0.004668144741 
0.002674979937 
0.003684128013 
0.002871443138 
0.003588685719 
0.02666195058 
0.004799457136 
0.003001377014 
0.007832955804 
0.009892613199 
0.00874588583 
0.006940631137 
0.005015225288 
0.008759274573 
0.008694196123 
0.006869054871 
0.005081918076 
0.005516752235 
0.005010329923 
0.003766468293 
0.007976585358 
0.007008016615 
0.01524103995 
0.007268309254 
0.009145449312 
0.00443266407 
0.01245762823 
0.01074189456 
0.009619395573 
0.008867821708 
0.009165207006 
0.00626818109 
0.01014957556 
0.004985842763 
0.007808982923 
0.005596350475 
0.005231868817 
0.004109534985 
0.005022653437 
0.006611097663 
0.004349203545 
0.008079034675 
0.007400333977 
0.00584845021 
0.00671783321 
0.004197603694 
0.008034189154 
0.002443187538 
0.006433388726 
0.007912049269 
0.002415600961 
0.002303683947 
0.003701485992 
0.004628625446 
0.002586497958 
0.006144012367 
0.005557143091 
0.004495381817 
0.007927768049 
0.008552372046 
0.009167983797 
0.00815856337 
0.007985233321 
0.003630006562 
0.005751039597 
0.004914524292 
0.002915391675 
0.005180142514 
0.003983381668 
0.005047361509 
0.005719467555 
0.004724191204 
0.00572843871 
0.004010980909 
0.008016599053 
0.01949403921 
0.004973904986 
0.004383295988 
0.04049047548 
0.006327975984 
0.006919757713 
0.006831072301 
0.03339666625 
0.002679847159 
0.002966803526 
0.002804789063 
0.005014648659 
0.07567807357 
0.00575284577 
0.01005405811 
0.003191699693 
0.006083909356 
0.01120536774 
0.008098465747 
0.01007348767 
0.01264365027 
0.004754103017 
0.03363687078 
0.06948237165 
0.04475632355 
0.1555322423 
0.03027165111 
0.02014499341 
0.07345987312 
0.003786879189 
0.004883228187 
0.007662457994 
0.008440182182 
0.007936732346 
0.004033619404 
0.009256795473 
0.007544491325 
0.004795361533 
0.04092581499 
0.004353291868 
0.00511565667 
0.005389383882 
0.005960034505 
0.004525147916 
0.002986863609 
0.002865913309 
0.006051458886 
0.006595694908 
0.005562782435 
0.001929850615 
0.004552538018 
0.007104515589 
0.002615247193 
0.003186815937 
0.004854500504 
0.04522828618 
0.09782231843 
0.09736732049 
0.03321399618 
0.05700135742 
0.04381776475 
0.04617413775 
0.002870630465 
0.005951128289 
0.007741097807 
0.005406438674 
0.006573213322 
0.007385398718 
0.003322595483 
0.007883045249 
0.009445882653 
0.005177644466 
0.006666660543 
0.004501990157 
0.007766548684 
0.004251808069 
0.003876030771 
0.005082517986 
0.005890562957 
0.003433058811 
0.001624080809 
0.003630120824 
0.005517211861 
0.01032311037 
0.004673779637 
0.006274722459 
0.005327900987 
0.004993616211 
0.03818995731 
0.003264774247 
0.00566571435 
0.004932042737 
0.005772544944 
0.003813494448 
0.009862838265 
0.008539511341 
0.008487882607 
0.004829055199 
0.004773515587 
0.006760058535 
0.003889631729 
0.005354213879 
0.004946319305 
0.008598828826 
0.006288030205 
0.005662537844 
0.003625196931 
0.003231369769 
0.006108370635 
0.01443697497 
0.02274777968 
0.03386999714 
0.05356067083 
0.06410265541 
0.03046720693 
0.01624021383 
0.007053780654 
0.0313149682 
0.03278679585 
0.002772462567 
0.002688288319 
0.001479716635 
0.003181330308 
0.004440187945 
0.01000496616 
0.005834591281 
0.002422649602 
0.001974006284 
0.004707295365 
0.007004560514 
0.004631961574 
0.002625053596 
0.004127535436 
0.004055121199 
0.00770692419 
0.03791478565 
0.007882438537 
0.00831016346 
0.004660999361 
0.006439591505 
0.005973211623 
0.004713048397 
0.002037629202 
0.003892480389 
0.004062719991 
0.005657060033 
0.003427198631 
0.004251504737 
0.008243551803 
0.004669457301 
0.004087319211 
0.01056117037 
0.00581758891 
0.003504606019 
0.005210283776 
0.004848420514 
0.005209625559 
0.00229383728 
0.008481515591 
0.004353781531 
0.002863085374 
0.001312294073 
0.004444102993 
0.0060007589 
0.004817224343 
0.00463526197 
0.006663552985 
0.006716715008 
0.00593052792 
0.005486627409 
0.003479918963 
0.02784890971 
0.003238143789 
0.004292486944 
0.002842107936 
0.00509077116 
0.006014545996 
0.006625238345 
0.004055721487 
0.003811050313 
0.002981744 
0.01118006961 
0.01652384993 
0.005057110034 
0.006548609695 
0.004959070412 
0.004948735415 
0.008112986167 
0.005109991721 
0.003605826981 
0.00524616757 
0.03970100127 
0.07737679714 
0.05738428121 
0.02871654799 
0.03620229875 
0.06949478382 
0.06026971131 
0.005090764347 
0.006673804475 
0.004059565839 
0.002151238581 
0.002977674451 
0.003016968596 
0.00314837242 
0.003123917664 
0.002698322839 
0.00279769643 
0.002755628584 
0.004400132943 
0.007271756923 
0.002930669357 
0.003041560157 
0.00257792454 
0.005351052361 
0.001639102267 
0.005204372831 
0.004726375287 
0.003893135196 
0.005076675143 
0.004025573161 
0.004313780418 
0.006984109365 
0.002545574693 
0.004069164087 
0.005701935349 
0.004465302284 
0.006063822369 
0.00275942968 
0.005016654392 
0.008253586673 
0.004388532358 
0.004842033478 
0.0077939161 
0.003268387897 
0.0338857737 
0.004878976935 
0.007619625344 
0.005124199791 
0.003437419017 
0.00283244814 
0.006555111231 
0.007216817582 
0.004760652912 
0.006489726928 
0.006689882956 
0.006562208555 
0.005499945271 
0.006240952154 
0.00451479121 
0.002262018151 
0.002829087464 
0.004329795903 
0.002564806018 
0.00388087368 
0.003351679858 
0.008016263138 
0.004722953387 
0.002594043495 
0.003825023626 
0.003711523232 
0.003011384779 
0.004501297537 
0.004661213366 
0.00718578011 
0.006227450997 
0.007348601741 
0.002895573586 
0.01063236568 
0.006536381142 
0.006596233126 
0.00710192742 
0.00402009709 
0.004008296917 
0.005858505642 
0.003695589957 
0.003400212866 
0.008140200414 
0.003252809206 
0.007215246886 
0.004936460398 
0.00465575873 
0.005022603474 
0.005181862926 
0.005053213155 
0.006648133395 
0.006040012216 
0.006090498414 
0.003511205093 
0.004908734804 
0.006113429451 
0.008228413215 
0.01050935799 
0.007606445938 
0.004614845179 
0.008203875203 
0.003725886931 
0.00990193411 
0.007695912917 
0.005671694858 
0.004170851697 
0.003868808418 
0.003375539771 
0.00416812476 
0.003017548683 
0.005459761882 
0.005530491277 
0.004761688504 
0.005388412365 
0.08518037486 
0.0615423224 
0.04665903275 
0.08695296924 
0.04220078157 
0.03234124441 
0.02175480181 
0.005295239225 
0.006318767847 
0.002954751441 
0.003560335387 
0.002934600296 
0.004965006774 
0.002536217878 
0.006981804054 
0.006586472009 
0.004056225963 
0.005694175708 
0.00322466195 
0.005692979162 
0.005545734565 
0.00328768465 
0.003886841841 
0.004219847616 
0.004133796801 
0.007252541498 
0.001490102461 
0.00646122804 
0.006414088388 
0.003019956714 
0.008245424295 
0.004630369048 
0.004585368093 
0.003982976981 
0.00475429834 
0.002874632209 
0.02543921773 
0.008950101368 
0.00263600405 
0.007086317806 
0.007098468901 
0.004738374064 
0.007976983553 
0.03369181234 
0.09303760515 
0.04892149557 
0.0435045867 
0.0436008082 
0.04318109985 
0.004779611449 
0.004079341161 
0.004740025015 
0.007534083349 
0.00358516621 
0.006329540519 
0.006514120676 
0.004653857607 
0.005620265587 
0.008534774794 
0.003878674732 
0.004914204217 
0.004649229083 
0.008112742514 
0.01009055756 
0.007555372354 
0.005328757977 
0.007016360497 
0.007260664308 
0.007661781089 
0.003720211358 
0.01041169274 
0.003284708036 
0.003824265716 
0.003897888978 
0.003109045952 
0.006917578923 
0.006148474747 
0.004297864464 
0.005604467472 
0.006219452169 
0.002840829839 
0.002698186875 
0.008160205211 
0.01375460351 
0.003816193909 
0.006792419057 
0.004368570919 
0.003463906746 
0.005124804574 
0.006109074421 
0.0040116367 
0.002763142089 
0.003268660104 
0.004663990718 
0.004807746539 
0.00378624329 
0.00559499354 
0.003624017779 
0.00445061775 
0.003373255796 
0.002234644203 
0.003396295355 
0.006323499988 
0.008568256908 
0.005392330705 
0.003410246466 
0.005178645185 
0.006280725803 
0.004632780109 
0.003772409073 
0.004608814564 
0.00347113588 
0.009149066571 
0.005685111358 
0.007642682116 
0.002577193814 
0.005588940318 
0.0103645353 
0.006587904896 
0.009290496059 
0.00629122067 
0.00536250369 
0.004656311093 
0.007823253553 
0.006543744542 
0.007096442229 
0.01230556326 
0.01035286195 
0.004829437439 
0.007640303797 
0.00902299022 
0.006893757626 
0.003460846144 
0.00447867238 
0.00322926552 
0.008606683298 
0.003343597746 
0.005267887184 
0.003670315217 
0.006214047041 
0.002030264441 
0.00360645418 
0.006623901678 
0.003508107271 
0.002800550661 
0.005795259208 
0.008663438702 
0.00606477883 
0.004425263292 
0.006143938453 
0.007279687709 
0.003771796345 
0.005049246311 
0.005626426605 
0.005388560707 
0.005236579779 
0.009654028002 
0.002349264839 
0.005750514779 
0.003736655504 
0.008486753495 
0.005443375343 
0.002808571453 
0.00359819398 
0.001923699999 
0.00675395326 
0.004848972762 
0.008740013755 
0.008743630368 
0.007443464581 
0.004623995187 
0.006808356271 
0.006474459991 
0.003294069403 
0.002658714067 
0.003627309809 
0.004892196734 
0.007356099622 
0.007023309365 
0.003231367197 
0.003501689562 
0.002998266855 
0.009201502577 
0.006070955838 
0.002348938122 
0.001470393272 
0.008870267614 
0.00148948393 
0.005382067227 
0.0056810618 
0.008055803826 
0.002304364541 
0.00460049062 
0.005242806188 
0.003570294516 