# vtk DataFile Version 3.0
MOAB 4.99 (Alpha)
ASCII
DATASET UNSTRUCTURED_GRID
POINTS 3146 double
0 -1 -1
0.4 -1 -1
0.8 -1 -1
1.2 -1 -1
1.6 -1 -1
2 -1 -1
2.4 -1 -1
2.8 -1 -1
3.2 -1 -1
3.6 -1 -1
4 -1 -1
4.4 -1 -1
4.8 -1 -1
5.2 -1 -1
5.6 -1 -1
6 -1 -1
6.4 -1 -1
6.8 -1 -1
7.2 -1 -1
7.6 -1 -1
8 -1 -1
8.4 -1 -1
8.8 -1 -1
9.2 -1 -1
9.6 -1 -1
10 -1 -1
0 -0.8 -1
0.4 -0.8 -1
0.8 -0.8 -1
1.2 -0.8 -1
1.6 -0.8 -1
2 -0.8 -1
2.4 -0.8 -1
2.8 -0.8 -1
3.2 -0.8 -1
3.6 -0.8 -1
4 -0.8 -1
4.4 -0.8 -1
4.8 -0.8 -1
5.2 -0.8 -1
5.6 -0.8 -1
6 -0.8 -1
6.4 -0.8 -1
6.8 -0.8 -1
7.2 -0.8 -1
7.6 -0.8 -1
8 -0.8 -1
8.4 -0.8 -1
8.8 -0.8 -1
9.2 -0.8 -1
9.6 -0.8 -1
10 -0.8 -1
0 -0.6 -1
0.4 -0.6 -1
0.8 -0.6 -1
1.2 -0.6 -1
1.6 -0.6 -1
2 -0.6 -1
2.4 -0.6 -1
2.8 -0.6 -1
3.2 -0.6 -1
3.6 -0.6 -1
4 -0.6 -1
4.4 -0.6 -1
4.8 -0.6 -1
5.2 -0.6 -1
5.6 -0.6 -1
6 -0.6 -1
6.4 -0.6 -1
6.8 -0.6 -1
7.2 -0.6 -1
7.6 -0.6 -1
8 -0.6 -1
8.4 -0.6 -1
8.8 -0.6 -1
9.2 -0.6 -1
9.6 -0.6 -1
10 -0.6 -1
0 -0.4 -1
0.4 -0.4 -1
0.8 -0.4 -1
1.2 -0.4 -1
1.6 -0.4 -1
2 -0.4 -1
2.4 -0.4 -1
2.8 -0.4 -1
3.2 -0.4 -1
3.6 -0.4 -1
4 -0.4 -1
4.4 -0.4 -1
4.8 -0.4 -1
5.2 -0.4 -1
5.6 -0.4 -1
6 -0.4 -1
6.4 -0.4 -1
6.8 -0.4 -1
7.2 -0.4 -1
7.6 -0.4 -1
8 -0.4 -1
8.4 -0.4 -1
8.8 -0.4 -1
9.2 -0.4 -1
9.6 -0.4 -1
10 -0.4 -1
0 -0.2 -1
0.4 -0.2 -1
0.8 -0.2 -1
1.2 -0.2 -1
1.6 -0.2 -1
2 -0.2 -1
2.4 -0.2 -1
2.8 -0.2 -1
3.2 -0.2 -1
3.6 -0.2 -1
4 -0.2 -1
4.4 -0.2 -1
4.8 -0.2 -1
5.2 -0.2 -1
5.6 -0.2 -1
6 -0.2 -1
6.4 -0.2 -1
6.8 -0.2 -1
7.2 -0.2 -1
7.6 -0.2 -1
8 -0.2 -1
8.4 -0.2 -1
8.8 -0.2 -1
9.2 -0.2 -1
9.6 -0.2 -1
10 -0.2 -1
0 0 -1
0.4 0 -1
0.8 0 -1
1.2 0 -1
1.6 0 -1
2 0 -1
2.4 0 -1
2.8 0 -1
3.2 0 -1
3.6 0 -1
4 0 -1
4.4 0 -1
4.8 0 -1
5.2 0 -1
5.6 0 -1
6 0 -1
6.4 0 -1
6.8 0 -1
7.2 0 -1
7.6 0 -1
8 0 -1
8.4 0 -1
8.8 0 -1
9.2 0 -1
9.6 0 -1
10 0 -1
0 0.2 -1
0.4 0.2 -1
0.8 0.2 -1
1.2 0.2 -1
1.6 0.2 -1
2 0.2 -1
2.4 0.2 -1
2.8 0.2 -1
3.2 0.2 -1
3.6 0.2 -1
4 0.2 -1
4.4 0.2 -1
4.8 0.2 -1
5.2 0.2 -1
5.6 0.2 -1
6 0.2 -1
6.4 0.2 -1
6.8 0.2 -1
7.2 0.2 -1
7.6 0.2 -1
8 0.2 -1
8.4 0.2 -1
8.8 0.2 -1
9.2 0.2 -1
9.6 0.2 -1
10 0.2 -1
0 0.4 -1
0.4 0.4 -1
0.8 0.4 -1
1.2 0.4 -1
1.6 0.4 -1
2 0.4 -1
2.4 0.4 -1
2.8 0.4 -1
3.2 0.4 -1
3.6 0.4 -1
4 0.4 -1
4.4 0.4 -1
4.8 0.4 -1
5.2 0.4 -1
5.6 0.4 -1
6 0.4 -1
6.4 0.4 -1
6.8 0.4 -1
7.2 0.4 -1
7.6 0.4 -1
8 0.4 -1
8.4 0.4 -1
8.8 0.4 -1
9.2 0.4 -1
9.6 0.4 -1
10 0.4 -1
0 0.6 -1
0.4 0.6 -1
0.8 0.6 -1
1.2 0.6 -1
1.6 0.6 -1
2 0.6 -1
2.4 0.6 -1
2.8 0.6 -1
3.2 0.6 -1
3.6 0.6 -1
4 0.6 -1
4.4 0.6 -1
4.8 0.6 -1
5.2 0.6 -1
5.6 0.6 -1
6 0.6 -1
6.4 0.6 -1
6.8 0.6 -1
7.2 0.6 -1
7.6 0.6 -1
8 0.6 -1
8.4 0.6 -1
8.8 0.6 -1
9.2 0.6 -1
9.6 0.6 -1
10 0.6 -1
0 0.8 -1
0.4 0.8 -1
0.8 0.8 -1
1.2 0.8 -1
1.6 0.8 -1
2 0.8 -1
2.4 0.8 -1
2.8 0.8 -1
3.2 0.8 -1
3.6 0.8 -1
4 0.8 -1
4.4 0.8 -1
4.8 0.8 -1
5.2 0.8 -1
5.6 0.8 -1
6 0.8 -1
6.4 0.8 -1
6.8 0.8 -1
7.2 0.8 -1
7.6 0.8 -1
8 0.8 -1
8.4 0.8 -1
8.8 0.8 -1
9.2 0.8 -1
9.6 0.8 -1
10 0.8 -1
0 1 -1
0.4 1 -1
0.8 1 -1
1.2 1 -1
1.6 1 -1
2 1 -1
2.4 1 -1
2.8 1 -1
3.2 1 -1
3.6 1 -1
4 1 -1
4.4 1 -1
4.8 1 -1
5.2 1 -1
5.6 1 -1
6 1 -1
6.4 1 -1
6.8 1 -1
7.2 1 -1
7.6 1 -1
8 1 -1
8.4 1 -1
8.8 1 -1
9.2 1 -1
9.6 1 -1
10 1 -1
0 -1 -0.8
0.4 -1 -0.8
0.8 -1 -0.8
1.2 -1 -0.8
1.6 -1 -0.8
2 -1 -0.8
2.4 -1 -0.8
2.8 -1 -0.8
3.2 -1 -0.8
3.6 -1 -0.8
4 -1 -0.8
4.4 -1 -0.8
4.8 -1 -0.8
5.2 -1 -0.8
5.6 -1 -0.8
6 -1 -0.8
6.4 -1 -0.8
6.8 -1 -0.8
7.2 -1 -0.8
7.6 -1 -0.8
8 -1 -0.8
8.4 -1 -0.8
8.8 -1 -0.8
9.2 -1 -0.8
9.6 -1 -0.8
10 -1 -0.8
0 -0.8 -0.8
0.4 -0.8 -0.8
0.8 -0.8 -0.8
1.2 -0.8 -0.8
1.6 -0.8 -0.8
2 -0.8 -0.8
2.4 -0.8 -0.8
2.8 -0.8 -0.8
3.2 -0.8 -0.8
3.6 -0.8 -0.8
4 -0.8 -0.8
4.4 -0.8 -0.8
4.8 -0.8 -0.8
5.2 -0.8 -0.8
5.6 -0.8 -0.8
6 -0.8 -0.8
6.4 -0.8 -0.8
6.8 -0.8 -0.8
7.2 -0.8 -0.8
7.6 -0.8 -0.8
8 -0.8 -0.8
8.4 -0.8 -0.8
8.8 -0.8 -0.8
9.2 -0.8 -0.8
9.6 -0.8 -0.8
10 -0.8 -0.8
0 -0.6 -0.8
0.4 -0.6 -0.8
0.8 -0.6 -0.8
1.2 -0.6 -0.8
1.6 -0.6 -0.8
2 -0.6 -0.8
2.4 -0.6 -0.8
2.8 -0.6 -0.8
3.2 -0.6 -0.8
3.6 -0.6 -0.8
4 -0.6 -0.8
4.4 -0.6 -0.8
4.8 -0.6 -0.8
5.2 -0.6 -0.8
5.6 -0.6 -0.8
6 -0.6 -0.8
6.4 -0.6 -0.8
6.8 -0.6 -0.8
7.2 -0.6 -0.8
7.6 -0.6 -0.8
8 -0.6 -0.8
8.4 -0.6 -0.8
8.8 -0.6 -0.8
9.2 -0.6 -0.8
9.6 -0.6 -0.8
10 -0.6 -0.8
0 -0.4 -0.8
0.4 -0.4 -0.8
0.8 -0.4 -0.8
1.2 -0.4 -0.8
1.6 -0.4 -0.8
2 -0.4 -0.8
2.4 -0.4 -0.8
2.8 -0.4 -0.8
3.2 -0.4 -0.8
3.6 -0.4 -0.8
4 -0.4 -0.8
4.4 -0.4 -0.8
4.8 -0.4 -0.8
5.2 -0.4 -0.8
5.6 -0.4 -0.8
6 -0.4 -0.8
6.4 -0.4 -0.8
6.8 -0.4 -0.8
7.2 -0.4 -0.8
7.6 -0.4 -0.8
8 -0.4 -0.8
8.4 -0.4 -0.8
8.8 -0.4 -0.8
9.2 -0.4 -0.8
9.6 -0.4 -0.8
10 -0.4 -0.8
0 -0.2 -0.8
0.4 -0.2 -0.8
0.8 -0.2 -0.8
1.2 -0.2 -0.8
1.6 -0.2 -0.8
2 -0.2 -0.8
2.4 -0.2 -0.8
2.8 -0.2 -0.8
3.2 -0.2 -0.8
3.6 -0.2 -0.8
4 -0.2 -0.8
4.4 -0.2 -0.8
4.8 -0.2 -0.8
5.2 -0.2 -0.8
5.6 -0.2 -0.8
6 -0.2 -0.8
6.4 -0.2 -0.8
6.8 -0.2 -0.8
7.2 -0.2 -0.8
7.6 -0.2 -0.8
8 -0.2 -0.8
8.4 -0.2 -0.8
8.8 -0.2 -0.8
9.2 -0.2 -0.8
9.6 -0.2 -0.8
10 -0.2 -0.8
0 0 -0.8
0.4 0 -0.8
0.8 0 -0.8
1.2 0 -0.8
1.6 0 -0.8
2 0 -0.8
2.4 0 -0.8
2.8 0 -0.8
3.2 0 -0.8
3.6 0 -0.8
4 0 -0.8
4.4 0 -0.8
4.8 0 -0.8
5.2 0 -0.8
5.6 0 -0.8
6 0 -0.8
6.4 0 -0.8
6.8 0 -0.8
7.2 0 -0.8
7.6 0 -0.8
8 0 -0.8
8.4 0 -0.8
8.8 0 -0.8
9.2 0 -0.8
9.6 0 -0.8
10 0 -0.8
0 0.2 -0.8
0.4 0.2 -0.8
0.8 0.2 -0.8
1.2 0.2 -0.8
1.6 0.2 -0.8
2 0.2 -0.8
2.4 0.2 -0.8
2.8 0.2 -0.8
3.2 0.2 -0.8
3.6 0.2 -0.8
4 0.2 -0.8
4.4 0.2 -0.8
4.8 0.2 -0.8
5.2 0.2 -0.8
5.6 0.2 -0.8
6 0.2 -0.8
6.4 0.2 -0.8
6.8 0.2 -0.8
7.2 0.2 -0.8
7.6 0.2 -0.8
8 0.2 -0.8
8.4 0.2 -0.8
8.8 0.2 -0.8
9.2 0.2 -0.8
9.6 0.2 -0.8
10 0.2 -0.8
0 0.4 -0.8
0.4 0.4 -0.8
0.8 0.4 -0.8
1.2 0.4 -0.8
1.6 0.4 -0.8
2 0.4 -0.8
2.4 0.4 -0.8
2.8 0.4 -0.8
3.2 0.4 -0.8
3.6 0.4 -0.8
4 0.4 -0.8
4.4 0.4 -0.8
4.8 0.4 -0.8
5.2 0.4 -0.8
5.6 0.4 -0.8
6 0.4 -0.8
6.4 0.4 -0.8
6.8 0.4 -0.8
7.2 0.4 -0.8
7.6 0.4 -0.8
8 0.4 -0.8
8.4 0.4 -0.8
8.8 0.4 -0.8
9.2 0.4 -0.8
9.6 0.4 -0.8
10 0.4 -0.8
0 0.6 -0.8
0.4 0.6 -0.8
0.8 0.6 -0.8
1.2 0.6 -0.8
1.6 0.6 -0.8
2 0.6 -0.8
2.4 0.6 -0.8
2.8 0.6 -0.8
3.2 0.6 -0.8
3.6 0.6 -0.8
4 0.6 -0.8
4.4 0.6 -0.8
4.8 0.6 -0.8
5.2 0.6 -0.8
5.6 0.6 -0.8
6 0.6 -0.8
6.4 0.6 -0.8
6.8 0.6 -0.8
7.2 0.6 -0.8
7.6 0.6 -0.8
8 0.6 -0.8
8.4 0.6 -0.8
8.8 0.6 -0.8
9.2 0.6 -0.8
9.6 0.6 -0.8
10 0.6 -0.8
0 0.8 -0.8
0.4 0.8 -0.8
0.8 0.8 -0.8
1.2 0.8 -0.8
1.6 0.8 -0.8
2 0.8 -0.8
2.4 0.8 -0.8
2.8 0.8 -0.8
3.2 0.8 -0.8
3.6 0.8 -0.8
4 0.8 -0.8
4.4 0.8 -0.8
4.8 0.8 -0.8
5.2 0.8 -0.8
5.6 0.8 -0.8
6 0.8 -0.8
6.4 0.8 -0.8
6.8 0.8 -0.8
7.2 0.8 -0.8
7.6 0.8 -0.8
8 0.8 -0.8
8.4 0.8 -0.8
8.8 0.8 -0.8
9.2 0.8 -0.8
9.6 0.8 -0.8
10 0.8 -0.8
0 1 -0.8
0.4 1 -0.8
0.8 1 -0.8
1.2 1 -0.8
1.6 1 -0.8
2 1 -0.8
2.4 1 -0.8
2.8 1 -0.8
3.2 1 -0.8
3.6 1 -0.8
4 1 -0.8
4.4 1 -0.8
4.8 1 -0.8
5.2 1 -0.8
5.6 1 -0.8
6 1 -0.8
6.4 1 -0.8
6.8 1 -0.8
7.2 1 -0.8
7.6 1 -0.8
8 1 -0.8
8.4 1 -0.8
8.8 1 -0.8
9.2 1 -0.8
9.6 1 -0.8
10 1 -0.8
0 -1 -0.6
0.4 -1 -0.6
0.8 -1 -0.6
1.2 -1 -0.6
1.6 -1 -0.6
2 -1 -0.6
2.4 -1 -0.6
2.8 -1 -0.6
3.2 -1 -0.6
3.6 -1 -0.6
4 -1 -0.6
4.4 -1 -0.6
4.8 -1 -0.6
5.2 -1 -0.6
5.6 -1 -0.6
6 -1 -0.6
6.4 -1 -0.6
6.8 -1 -0.6
7.2 -1 -0.6
7.6 -1 -0.6
8 -1 -0.6
8.4 -1 -0.6
8.8 -1 -0.6
9.2 -1 -0.6
9.6 -1 -0.6
10 -1 -0.6
0 -0.8 -0.6
0.4 -0.8 -0.6
0.8 -0.8 -0.6
1.2 -0.8 -0.6
1.6 -0.8 -0.6
2 -0.8 -0.6
2.4 -0.8 -0.6
2.8 -0.8 -0.6
3.2 -0.8 -0.6
3.6 -0.8 -0.6
4 -0.8 -0.6
4.4 -0.8 -0.6
4.8 -0.8 -0.6
5.2 -0.8 -0.6
5.6 -0.8 -0.6
6 -0.8 -0.6
6.4 -0.8 -0.6
6.8 -0.8 -0.6
7.2 -0.8 -0.6
7.6 -0.8 -0.6
8 -0.8 -0.6
8.4 -0.8 -0.6
8.8 -0.8 -0.6
9.2 -0.8 -0.6
9.6 -0.8 -0.6
10 -0.8 -0.6
0 -0.6 -0.6
0.4 -0.6 -0.6
0.8 -0.6 -0.6
1.2 -0.6 -0.6
1.6 -0.6 -0.6
2 -0.6 -0.6
2.4 -0.6 -0.6
2.8 -0.6 -0.6
3.2 -0.6 -0.6
3.6 -0.6 -0.6
4 -0.6 -0.6
4.4 -0.6 -0.6
4.8 -0.6 -0.6
5.2 -0.6 -0.6
5.6 -0.6 -0.6
6 -0.6 -0.6
6.4 -0.6 -0.6
6.8 -0.6 -0.6
7.2 -0.6 -0.6
7.6 -0.6 -0.6
8 -0.6 -0.6
8.4 -0.6 -0.6
8.8 -0.6 -0.6
9.2 -0.6 -0.6
9.6 -0.6 -0.6
10 -0.6 -0.6
0 -0.4 -0.6
0.4 -0.4 -0.6
0.8 -0.4 -0.6
1.2 -0.4 -0.6
1.6 -0.4 -0.6
2 -0.4 -0.6
2.4 -0.4 -0.6
2.8 -0.4 -0.6
3.2 -0.4 -0.6
3.6 -0.4 -0.6
4 -0.4 -0.6
4.4 -0.4 -0.6
4.8 -0.4 -0.6
5.2 -0.4 -0.6
5.6 -0.4 -0.6
6 -0.4 -0.6
6.4 -0.4 -0.6
6.8 -0.4 -0.6
7.2 -0.4 -0.6
7.6 -0.4 -0.6
8 -0.4 -0.6
8.4 -0.4 -0.6
8.8 -0.4 -0.6
9.2 -0.4 -0.6
9.6 -0.4 -0.6
10 -0.4 -0.6
0 -0.2 -0.6
0.4 -0.2 -0.6
0.8 -0.2 -0.6
1.2 -0.2 -0.6
1.6 -0.2 -0.6
2 -0.2 -0.6
2.4 -0.2 -0.6
2.8 -0.2 -0.6
3.2 -0.2 -0.6
3.6 -0.2 -0.6
4 -0.2 -0.6
4.4 -0.2 -0.6
4.8 -0.2 -0.6
5.2 -0.2 -0.6
5.6 -0.2 -0.6
6 -0.2 -0.6
6.4 -0.2 -0.6
6.8 -0.2 -0.6
7.2 -0.2 -0.6
7.6 -0.2 -0.6
8 -0.2 -0.6
8.4 -0.2 -0.6
8.8 -0.2 -0.6
9.2 -0.2 -0.6
9.6 -0.2 -0.6
10 -0.2 -0.6
0 0 -0.6
0.4 0 -0.6
0.8 0 -0.6
1.2 0 -0.6
1.6 0 -0.6
2 0 -0.6
2.4 0 -0.6
2.8 0 -0.6
3.2 0 -0.6
3.6 0 -0.6
4 0 -0.6
4.4 0 -0.6
4.8 0 -0.6
5.2 0 -0.6
5.6 0 -0.6
6 0 -0.6
6.4 0 -0.6
6.8 0 -0.6
7.2 0 -0.6
7.6 0 -0.6
8 0 -0.6
8.4 0 -0.6
8.8 0 -0.6
9.2 0 -0.6
9.6 0 -0.6
10 0 -0.6
0 0.2 -0.6
0.4 0.2 -0.6
0.8 0.2 -0.6
1.2 0.2 -0.6
1.6 0.2 -0.6
2 0.2 -0.6
2.4 0.2 -0.6
2.8 0.2 -0.6
3.2 0.2 -0.6
3.6 0.2 -0.6
4 0.2 -0.6
4.4 0.2 -0.6
4.8 0.2 -0.6
5.2 0.2 -0.6
5.6 0.2 -0.6
6 0.2 -0.6
6.4 0.2 -0.6
6.8 0.2 -0.6
7.2 0.2 -0.6
7.6 0.2 -0.6
8 0.2 -0.6
8.4 0.2 -0.6
8.8 0.2 -0.6
9.2 0.2 -0.6
9.6 0.2 -0.6
10 0.2 -0.6
0 0.4 -0.6
0.4 0.4 -0.6
0.8 0.4 -0.6
1.2 0.4 -0.6
1.6 0.4 -0.6
2 0.4 -0.6
2.4 0.4 -0.6
2.8 0.4 -0.6
3.2 0.4 -0.6
3.6 0.4 -0.6
4 0.4 -0.6
4.4 0.4 -0.6
4.8 0.4 -0.6
5.2 0.4 -0.6
5.6 0.4 -0.6
6 0.4 -0.6
6.4 0.4 -0.6
6.8 0.4 -0.6
7.2 0.4 -0.6
7.6 0.4 -0.6
8 0.4 -0.6
8.4 0.4 -0.6
8.8 0.4 -0.6
9.2 0.4 -0.6
9.6 0.4 -0.6
10 0.4 -0.6
0 0.6 -0.6
0.4 0.6 -0.6
0.8 0.6 -0.6
1.2 0.6 -0.6
1.6 0.6 -0.6
2 0.6 -0.6
2.4 0.6 -0.6
2.8 0.6 -0.6
3.2 0.6 -0.6
3.6 0.6 -0.6
4 0.6 -0.6
4.4 0.6 -0.6
4.8 0.6 -0.6
5.2 0.6 -0.6
5.6 0.6 -0.6
6 0.6 -0.6
6.4 0.6 -0.6
6.8 0.6 -0.6
7.2 0.6 -0.6
7.6 0.6 -0.6
8 0.6 -0.6
8.4 0.6 -0.6
8.8 0.6 -0.6
9.2 0.6 -0.6
9.6 0.6 -0.6
10 0.6 -0.6
0 0.8 -0.6
0.4 0.8 -0.6
0.8 0.8 -0.6
1.2 0.8 -0.6
1.6 0.8 -0.6
2 0.8 -0.6
2.4 0.8 -0.6
2.8 0.8 -0.6
3.2 0.8 -0.6
3.6 0.8 -0.6
4 0.8 -0.6
4.4 0.8 -0.6
4.8 0.8 -0.6
5.2 0.8 -0.6
5.6 0.8 -0.6
6 0.8 -0.6
6.4 0.8 -0.6
6.8 0.8 -0.6
7.2 0.8 -0.6
7.6 0.8 -0.6
8 0.8 -0.6
8.4 0.8 -0.6
8.8 0.8 -0.6
9.2 0.8 -0.6
9.6 0.8 -0.6
10 0.8 -0.6
0 1 -0.6
0.4 1 -0.6
0.8 1 -0.6
[...]
CELL_DATA 2500
SCALARS TALLY_TAG double 1
LOOKUP_TABLE default
0.361196 
0.360717 
0.361169 
0.361249 
0.360805 
0.360788 
0.360227 
0.360974 
0.361299 
0.361416 
0.360705 
0.361703 
0.360708 
0.360183 
0.360293 
0.361117 
0.360401 
0.359976 
0.359455 
0.361403 
0.361507 
0.361078 
0.361038 
0.360056 
0.360311 
0.361042 
0.359855 
0.36009 
0.360766 
0.36113 
0.360477 
0.360439 
0.361348 
0.361083 
0.360166 
0.361226 
0.360156 
0.361235 
0.360739 
0.360117 
0.361244 
0.359765 
0.360875 
0.361066 
0.361156 
0.360323 
0.361043 
0.360568 
0.360073 
0.359772 
0.360941 
0.360656 
0.361237 
0.360267 
0.360634 
0.360544 
0.362263 
0.361169 
0.360396 
0.360805 
0.361745 
0.361122 
0.36025 
0.360107 
0.360287 
0.360801 
0.361321 
0.361682 
0.36053 
0.360183 
0.361979 
0.360763 
0.361126 
0.36081 
0.361004 
0.361369 
0.360819 
0.360662 
0.361198 
0.360504 
0.361284 
0.360866 
0.360564 
0.360591 
0.361495 
0.360627 
0.360902 
0.359899 
0.360444 
0.361196 
0.361363 
0.360907 
0.360325 
0.360811 
0.360032 
0.361304 
0.361446 
0.36161 
0.361925 
0.362098 
0.356468 
0.355454 
0.356655 
0.355992 
0.356077 
0.354732 
0.356128 
0.355879 
0.355784 
0.356166 
0.355889 
0.356629 
0.354922 
0.355403 
0.355098 
0.355884 
0.357321 
0.356886 
0.355652 
0.355642 
0.356078 
0.356667 
0.355608 
0.355905 
0.357021 
0.355909 
0.35689 
0.356301 
0.355403 
0.355568 
0.356099 
0.356252 
0.355771 
0.356412 
0.356112 
0.35639 
0.356197 
0.356186 
0.357363 
0.356145 
0.356084 
0.355691 
0.35516 
0.355584 
0.35599 
0.355404 
0.355987 
0.356495 
0.356467 
0.35567 
0.355875 
0.355063 
0.355798 
0.354679 
0.355084 
0.355682 
0.356642 
0.356834 
0.35561 
0.35665 
0.356418 
0.356125 
0.354609 
0.354744 
0.355142 
0.355776 
0.355978 
0.356235 
0.355876 
0.355027 
0.356411 
0.357355 
0.356798 
0.355736 
0.356194 
0.355585 
0.355453 
0.356473 
0.355318 
0.356045 
0.356564 
0.357156 
0.356372 
0.356291 
0.356753 
0.355574 
0.356049 
0.355688 
0.355348 
0.355789 
0.356257 
0.35638 
0.355839 
0.356074 
0.355558 
0.356008 
0.356215 
0.356494 
0.356382 
0.35572 
0.349629 
0.349266 
0.348794 
0.349397 
0.349723 
0.350914 
0.349551 
0.34969 
0.349585 
0.349839 
0.349364 
0.350616 
0.349831 
0.349064 
0.348929 
0.349928 
0.350555 
0.35007 
0.348863 
0.349487 
0.34934 
0.351011 
0.349982 
0.349619 
0.349726 
0.350369 
0.349179 
0.349465 
0.349707 
0.349575 
0.350601 
0.350896 
0.350273 
0.349802 
0.349922 
0.350153 
0.348916 
0.349614 
0.349407 
0.348675 
0.34937 
0.350282 
0.348837 
0.349714 
0.349676 
0.350107 
0.34929 
0.349835 
0.349841 
0.348703 
0.350014 
0.349507 
0.349365 
0.349137 
0.350495 
0.349544 
0.349735 
0.349454 
0.34947 
0.348415 
0.349589 
0.350225 
0.35084 
0.349701 
0.350368 
0.349082 
0.350354 
0.350194 
0.349571 
0.349029 
0.349485 
0.350392 
0.350639 
0.349121 
0.350446 
0.34884 
0.349118 
0.34976 
0.349862 
0.35011 
0.349898 
0.350904 
0.349291 
0.349564 
0.34973 
0.349981 
0.350074 
0.34981 
0.350163 
0.349277 
0.35114 
0.350393 
0.349969 
0.348322 
0.348018 
0.349273 
0.350372 
0.349606 
0.349432 
0.350825 
0.343102 
0.34165 
0.340856 
0.342258 
0.342556 
0.342671 
0.341786 
0.341134 
0.341286 
0.341457 
0.341668 
0.341697 
0.341348 
0.341048 
0.341368 
0.342293 
0.341799 
0.340562 
0.340707 
0.34119 
0.340721 
0.341899 
0.341243 
0.34042 
0.341979 
0.342677 
0.341093 
0.342495 
0.341211 
0.341092 
0.341145 
0.342025 
0.340951 
0.341272 
0.342287 
0.342448 
0.340693 
0.341394 
0.34109 
0.341462 
0.343374 
0.343257 
0.340599 
0.341622 
0.34112 
0.340841 
0.342183 
0.341641 
0.341564 
0.341481 
0.341903 
0.341434 
0.341614 
0.342477 
0.342597 
0.341203 
0.342765 
0.341475 
0.340499 
0.341155 
0.342744 
0.343224 
0.343166 
0.341723 
0.342251 
0.341092 
0.342599 
0.341765 
0.341643 
0.341593 
0.341509 
0.341514 
0.341711 
0.341416 
0.341185 
0.341977 
0.341556 
0.341569 
0.341569 
0.341221 
0.341136 
0.341779 
0.342094 
0.342425 
0.340956 
0.341176 
0.341619 
0.342362 
0.34222 
0.341132 
0.341892 
0.341544 
0.34154 
0.341863 
0.342348 
0.341337 
0.341343 
0.341394 
0.341702 
0.340954 
0.332804 
0.332186 
0.331536 
0.33204 
0.333379 
0.332235 
0.333078 
0.332207 
0.331832 
0.332254 
0.332048 
0.332374 
0.332598 
0.332003 
0.331919 
0.332807 
0.333054 
0.332467 
0.331932 
0.332097 
0.33264 
0.332005 
0.330891 
0.331561 
0.333302 
0.332864 
0.333476 
0.332494 
0.332921 
0.332346 
0.332004 
0.332677 
0.332958 
0.333626 
0.332848 
0.332466 
0.332152 
0.332614 
0.333428 
0.332461 
0.332859 
0.332334 
0.333084 
0.333103 
0.332722 
0.333854 
0.332591 
0.331828 
0.332274 
0.331711 
0.332756 
0.333075 
0.332948 
0.332611 
0.331847 
0.332713 
0.333364 
0.332981 
0.332787 
0.33237 
0.332545 
0.333559 
0.333722 
0.331899 
0.332221 
0.332172 
0.333181 
0.33293 
0.333677 
0.333183 
0.333389 
0.333581 
0.332447 
0.332893 
0.33259 
0.332753 
0.333643 
0.332985 
0.331966 
0.332786 
0.333268 
0.33198 
0.332618 
0.333136 
0.333286 
0.332804 
0.332996 
0.333238 
0.332213 
0.33213 
0.332532 
0.33196 
0.331568 
0.332785 
0.333422 
0.332312 
0.33179 
0.332452 
0.33316 
0.332473 
0.321581 
0.322513 
0.32242 
0.322902 
0.322208 
0.322859 
0.322651 
0.322257 
0.321545 
0.321925 
0.322241 
0.322066 
0.321448 
0.322276 
0.32285 
0.32297 
0.322723 
0.322941 
0.322583 
0.321655 
0.322496 
0.321815 
0.323337 
0.323097 
0.322719 
0.321947 
0.32256 
0.322406 
0.321595 
0.322399 
0.32189 
0.322669 
0.323202 
0.322208 
0.322646 
0.322928 
0.322887 
0.321021 
0.321426 
0.321194 
0.320683 
0.322076 
0.322981 
0.322346 
0.322484 
0.322006 
0.323541 
0.321831 
0.321878 
0.321657 
0.32265 
0.322762 
0.322778 
0.322809 
0.322585 
0.322603 
0.323726 
0.322614 
0.322163 
0.322912 
0.322551 
0.322751 
0.323163 
0.322882 
0.321849 
0.322027 
0.323448 
0.323348 
0.322461 
0.323048 
0.322806 
0.323125 
0.32269 
0.322346 
0.322622 
0.323016 
0.322819 
0.321748 
0.321803 
0.322908 
0.323126 
0.322659 
0.322198 
0.322262 
0.323044 
0.323247 
0.321303 
0.322914 
0.32219 
0.322187 
0.322167 
0.321438 
0.321239 
0.323409 
0.322603 
0.322622 
0.321856 
0.321905 
0.323122 
0.322966 
0.312464 
0.311766 
0.311885 
0.311351 
0.311332 
0.311882 
0.311748 
0.31131 
0.311485 
0.310995 
0.312043 
0.312414 
0.312214 
0.310697 
0.311607 
0.312023 
0.311455 
0.311478 
0.311455 
0.311368 
0.312537 
0.312495 
0.311602 
0.311835 
0.311253 
0.311365 
0.310608 
0.31089 
0.311214 
0.310445 
0.31195 
0.311717 
0.312036 
0.31192 
0.312028 
0.311157 
0.311126 
0.311056 
0.311481 
0.310416 
0.310884 
0.310519 
0.312348 
0.311707 
0.312333 
0.312739 
0.311951 
0.311824 
0.312081 
0.310885 
0.311371 
0.31128 
0.312697 
0.311822 
0.311955 
0.311876 
0.313375 
0.313297 
0.31179 
0.311223 
0.311235 
0.311776 
0.312098 
0.312179 
0.311923 
0.311341 
0.312309 
0.313054 
0.311285 
0.311457 
0.311312 
0.311468 
0.311166 
0.311614 
0.313011 
0.312895 
0.31307 
0.312668 
0.310683 
0.311077 
0.311722 
0.312123 
0.311314 
0.31126 
0.311886 
0.311909 
0.311428 
0.311615 
0.311861 
0.311607 
0.312271 
0.311911 
0.311759 
0.310897 
0.311074 
0.312484 
0.311545 
0.312039 
0.312107 
0.311679 
0.300725 
0.301039 
0.300641 
0.300717 
0.300857 
0.299818 
0.300833 
0.299943 
0.300363 
0.299907 
0.299733 
0.299924 
0.300109 
0.300068 
0.300059 
0.300583 
0.300114 
0.299278 
0.300376 
0.298965 
0.30075 
0.301137 
0.301157 
0.30023 
0.300679 
0.300885 
0.30068 
0.299789 
0.300516 
0.299555 
0.301273 
0.301024 
0.300983 
0.300829 
0.300452 
0.301035 
0.300449 
0.298814 
0.300789 
0.300014 
0.300641 
0.300312 
0.300201 
0.3001 
0.300352 
0.301123 
0.300564 
0.300169 
0.300181 
0.299899 
0.300363 
0.300186 
0.300172 
0.300661 
0.300096 
0.300482 
0.301172 
0.300387 
0.301054 
0.300437 
0.30118 
0.300971 
0.301286 
0.30074 
0.300982 
0.300435 
0.300789 
0.299639 
0.300294 
0.300457 
0.300742 
0.301301 
0.300447 
0.300577 
0.301061 
0.300429 
0.300046 
0.299707 
0.299791 
0.299832 
0.300409 
0.30015 
0.300364 
0.300354 
0.300605 
0.300227 
0.299807 
0.299876 
0.299988 
0.299392 
0.299597 
0.300507 
0.300555 
0.30004 
0.300123 
0.300647 
0.299662 
0.300975 
0.300501 
0.300487 
0.288336 
0.288022 
0.288418 
0.289098 
0.287772 
0.288248 
0.289109 
0.288912 
0.287901 
0.288313 
0.288307 
0.288067 
0.288197 
0.287967 
0.288342 
0.28853 
0.288921 
0.288039 
0.287792 
0.287936 
0.288486 
0.288401 
0.289026 
0.288443 
0.290063 
0.288598 
0.288299 
0.287486 
0.287593 
0.288438 
0.288693 
0.288914 
0.288469 
0.288627 
0.289228 
0.289166 
0.288859 
0.289126 
0.288184 
0.28777 
0.28892 
0.288646 
0.28841 
0.288823 
0.289408 
0.288232 
0.288318 
0.288558 
0.287731 
0.288201 
0.288769 
0.288668 
0.288346 
0.288939 
0.288311 
0.288385 
0.288793 
0.289278 
0.289397 
0.288929 
0.288446 
0.288709 
0.289212 
0.289066 
0.289396 
0.288385 
0.288579 
0.288728 
0.288804 
0.288929 
0.28826 
0.289218 
0.288519 
0.288233 
0.289297 
0.288665 
0.288683 
0.28781 
0.288167 
0.288533 
0.289274 
0.288384 
0.288628 
0.288943 
0.288926 
0.287796 
0.287719 
0.287412 
0.287757 
0.288106 
0.290611 
0.289041 
0.288615 
0.288988 
0.289005 
0.28828 
0.2879 
0.287829 
0.289054 
0.288973 
0.276178 
0.276943 
0.275579 
0.276861 
0.275788 
0.276034 
0.27536 
0.276145 
0.2764 
0.276556 
0.277116 
0.276408 
0.276218 
0.27594 
0.276561 
0.276931 
0.276417 
0.277763 
0.277799 
0.276011 
0.276481 
0.276002 
0.276503 
0.276262 
0.277093 
0.276414 
0.276603 
0.276802 
0.277897 
0.277288 
0.276054 
0.276233 
0.275964 
0.276029 
0.276788 
0.276553 
0.27617 
0.277083 
0.276349 
0.276503 
0.276655 
0.277274 
0.275556 
0.275815 
0.276133 
0.276081 
0.275991 
0.276908 
0.277082 
0.275765 
0.276496 
0.277018 
0.27675 
0.275195 
0.276 
0.27639 
0.277233 
0.276381 
0.276482 
0.276131 
0.276089 
0.277352 
0.277419 
0.276193 
0.277168 
0.277307 
0.276137 
0.275329 
0.276308 
0.276154 
0.276291 
0.276927 
0.276236 
0.277858 
0.276788 
0.277073 
0.275974 
0.276028 
0.276595 
0.276053 
0.277551 
0.276274 
0.277282 
0.276637 
0.277271 
0.277407 
0.275761 
0.276023 
0.276003 
0.275839 
0.277728 
0.276662 
0.276766 
0.277045 
0.276292 
0.276646 
0.276332 
0.275801 
0.275618 
0.276131 
0.264007 
0.263086 
0.264229 
0.264173 
0.264299 
0.264623 
0.265125 
0.264213 
0.263554 
0.263481 
0.263695 
0.264339 
0.264467 
0.264499 
0.264471 
0.26419 
0.264712 
0.26524 
0.264652 
0.264984 
0.264788 
0.264419 
0.264782 
0.264335 
0.263795 
0.264882 
0.264387 
0.264691 
0.264704 
0.263883 
0.264801 
0.263843 
0.264709 
0.265225 
0.264449 
0.264555 
0.264225 
0.265031 
0.264405 
0.263078 
0.263485 
0.263749 
0.264576 
0.264631 
0.265175 
0.264138 
0.264683 
0.264435 
0.263359 
0.26365 
0.264454 
0.264479 
0.264505 
0.264415 
0.264762 
0.264729 
0.264749 
0.264928 
0.263857 
0.263885 
0.264475 
0.264687 
0.264768 
0.263586 
0.26354 
0.264243 
0.263943 
0.264321 
0.263401 
0.263488 
0.264315 
0.264504 
0.264797 
0.264868 
0.264834 
0.264371 
0.263045 
0.26519 
0.264731 
0.262704 
0.264317 
0.26407 
0.26508 
0.264824 
0.264306 
0.263849 
0.263623 
0.264733 
0.264012 
0.263493 
0.263926 
0.264094 
0.263668 
0.264304 
0.264508 
0.264321 
0.263833 
0.264197 
0.263687 
0.263946 
0.250933 
0.251656 
0.252253 
0.25209 
0.251588 
0.251878 
0.251395 
0.251391 
0.251312 
0.252244 
0.252335 
0.252289 
0.251924 
0.252453 
0.251944 
0.252331 
0.252169 
0.252471 
0.252268 
0.251687 
0.251609 
0.251798 
0.251892 
0.252211 
0.25214 
0.251844 
0.252123 
0.250925 
0.251362 
0.251083 
0.252072 
0.251876 
0.251407 
0.252832 
0.252778 
0.252139 
0.252491 
0.252143 
0.251535 
0.252224 
0.252652 
0.251917 
0.251725 
0.252375 
0.251541 
0.2512 
0.252888 
0.253343 
0.252485 
0.251412 
0.25201 
0.252493 
0.252468 
0.252179 
0.251824 
0.251011 
0.252068 
0.252428 
0.25156 
0.251452 
0.252613 
0.252061 
0.252731 
0.252471 
0.252467 
0.251835 
0.251601 
0.251771 
0.251988 
0.251979 
0.25241 
0.25331 
0.252437 
0.251487 
0.251904 
0.25235 
0.251219 
0.251808 
0.252314 
0.252976 
0.251855 
0.252526 
0.251819 
0.252042 
0.252433 
0.251897 
0.251173 
0.250887 
0.252051 
0.252375 
0.251612 
0.25161 
0.251841 
0.251247 
0.251928 
0.251861 
0.251264 
0.252244 
0.252086 
0.251013 
0.239762 
0.239291 
0.240045 
0.238717 
0.238432 
0.239593 
0.239195 
0.239644 
0.24028 
0.240292 
0.239566 
0.239282 
0.240009 
0.238986 
0.239317 
0.239491 
0.240021 
0.239302 
0.239397 
0.239531 
0.239294 
0.239753 
0.239913 
0.239255 
0.239018 
0.239603 
0.24038 
0.238966 
0.239299 
0.239333 
0.240191 
0.239846 
0.239764 
0.23938 
0.239297 
0.239253 
0.239948 
0.239786 
0.239318 
0.239729 
0.239681 
0.239263 
0.239772 
0.239234 
0.239386 
0.23985 
0.240157 
0.240236 
0.23977 
0.239028 
0.239713 
0.239829 
0.24047 
0.239594 
0.239079 
0.238747 
0.239047 
0.239728 
0.239329 
0.238638 
0.239199 
0.240444 
0.239653 
0.238918 
0.23931 
0.240049 
0.239849 
0.239503 
0.239688 
0.240041 
0.239316 
0.239859 
0.239854 
0.239129 
0.23991 
0.239328 
0.239673 
0.239419 
0.240142 
0.240121 
0.240048 
0.239944 
0.239795 
0.23997 
0.239798 
0.239775 
0.239495 
0.239435 
0.240032 
0.239783 
0.239458 
0.239643 
0.23902 
0.239435 
0.239762 
0.240222 
0.240119 
0.240351 
0.239534 
0.239778 
0.227144 
0.227872 
0.227071 
0.227329 
0.227745 
0.227914 
0.227959 
0.227537 
0.227251 
0.22759 
0.226965 
0.227155 
0.227135 
0.227769 
0.227058 
0.228086 
0.228776 
0.228836 
0.227185 
0.228174 
0.226383 
0.227421 
0.227088 
0.226617 
0.227696 
0.228764 
0.227384 
0.228332 
0.22792 
0.228319 
0.227227 
0.227297 
0.227403 
0.227083 
0.228005 
0.227173 
0.227722 
0.227594 
0.228105 
0.227643 
0.227375 
0.227823 
0.227383 
0.226935 
0.228207 
0.228537 
0.227996 
0.228381 
0.227195 
0.227836 
0.22794 
0.227232 
0.227596 
0.227586 
0.227864 
0.227494 
0.228046 
0.226916 
0.226489 
0.227023 
0.227401 
0.226598 
0.227855 
0.228088 
0.227739 
0.227157 
0.227199 
0.226949 
0.227416 
0.227532 
0.227094 
0.226799 
0.227171 
0.227962 
0.227336 
0.227564 
0.228065 
0.227562 
0.227025 
0.227066 
0.227192 
0.227195 
0.226429 
0.227756 
0.228052 
0.227504 
0.227544 
0.227267 
0.227731 
0.227596 
0.227723 
0.228671 
0.227616 
0.227597 
0.227851 
0.227675 
0.226883 
0.227504 
0.22802 
0.227967 
0.215534 
0.215406 
0.215845 
0.215997 
0.215656 
0.215933 
0.215239 
0.21528 
0.216503 
0.216195 
0.215702 
0.216174 
0.214906 
0.215239 
0.214525 
0.21585 
0.216101 
0.215509 
0.216025 
0.215784 
0.215791 
0.215876 
0.215917 
0.215748 
0.215531 
0.215696 
0.215372 
0.21504 
0.215827 
0.215806 
0.215505 
0.214903 
0.215617 
0.21552 
0.215117 
0.215107 
0.215617 
0.215147 
0.215728 
0.214856 
0.215736 
0.215241 
0.215623 
0.214911 
0.215548 
0.215175 
0.216194 
0.215653 
0.215542 
0.215542 
0.216146 
0.215259 
0.21498 
0.215898 
0.216188 
0.215298 
0.21625 
0.215583 
0.214967 
0.215106 
0.215076 
0.215521 
0.215745 
0.216086 
0.216296 
0.214804 
0.215763 
0.215864 
0.215239 
0.215393 
0.21552 
0.215341 
0.215047 
0.215564 
0.215869 
0.215791 
0.215313 
0.215403 
0.215676 
0.21571 
0.215137 
0.214992 
0.21501 
0.216176 
0.216044 
0.216151 
0.216011 
0.21622 
0.215306 
0.215509 
0.215184 
0.215037 
0.214692 
0.216031 
0.215036 
0.214759 
0.2156 
0.214836 
0.215603 
0.215134 
0.204926 
0.203879 
0.203684 
0.203742 
0.203183 
0.203992 
0.204104 
0.203844 
0.203889 
0.204785 
0.204363 
0.204142 
0.203973 
0.203301 
0.203192 
0.203288 
0.203717 
0.202889 
0.203319 
0.203623 
0.204085 
0.203652 
0.203504 
0.203098 
0.203933 
0.203648 
0.20403 
0.204357 
0.203812 
0.2039 
0.204243 
0.204106 
0.20416 
0.203147 
0.204366 
0.204296 
0.203318 
0.203912 
0.204109 
0.203942 
0.203017 
0.203806 
0.204303 
0.204132 
0.203902 
0.20396 
0.203976 
0.203743 
0.203184 
0.204144 
0.203492 
0.204784 
0.204429 
0.203859 
0.203097 
0.203099 
0.203716 
0.203651 
0.203895 
0.203937 
0.203502 
0.203688 
0.203842 
0.203903 
0.203685 
0.203212 
0.203363 
0.203317 
0.203381 
0.20462 
0.203329 
0.203293 
0.203552 
0.204557 
0.203621 
0.203178 
0.203498 
0.203687 
0.20343 
0.204248 
0.204032 
0.204012 
0.204045 
0.204565 
0.204036 
0.203328 
0.20329 
0.203562 
0.202907 
0.203395 
0.203576 
0.204437 
0.203726 
0.203612 
0.203988 
0.203865 
0.203397 
0.204044 
0.204693 
0.203733 
0.192792 
0.192209 
0.192779 
0.192614 
0.192012 
0.192153 
0.192753 
0.193192 
0.193244 
0.192657 
0.192561 
0.192554 
0.193049 
0.192473 
0.192297 
0.192207 
0.191879 
0.192291 
0.191675 
0.192716 
0.192363 
0.192513 
0.192099 
0.191856 
0.192521 
0.192096 
0.192298 
0.191757 
0.192405 
0.192649 
0.192857 
0.192384 
0.192248 
0.192129 
0.192191 
0.192154 
0.192888 
0.19233 
0.1923 
0.192339 
0.192434 
0.192767 
0.192734 
0.192132 
0.193611 
0.193014 
0.193267 
0.191845 
0.191437 
0.192471 
0.192528 
0.192214 
0.191855 
0.192313 
0.191965 
0.192904 
0.192981 
0.192258 
0.192182 
0.193292 
0.192224 
0.192189 
0.192547 
0.192651 
0.191899 
0.192052 
0.191707 
0.192546 
0.192366 
0.192657 
0.192403 
0.192639 
0.192224 
0.192544 
0.192379 
0.192052 
0.191698 
0.192425 
0.193304 
0.193467 
0.193183 
0.192951 
0.191275 
0.191687 
0.192341 
0.192257 
0.192759 
0.192577 
0.19329 
0.192509 
0.192749 
0.192754 
0.192589 
0.192177 
0.193171 
0.19214 
0.192831 
0.192364 
0.193165 
0.192616 
0.181761 
0.181229 
0.181487 
0.181677 
0.18154 
0.181712 
0.181288 
0.182206 
0.182049 
0.18199 
0.181618 
0.181643 
0.181619 
0.181279 
0.180777 
0.181914 
0.18205 
0.182121 
0.181214 
0.181464 
0.1822 
0.18178 
0.181468 
0.181202 
0.180992 
0.181702 
0.182158 
0.181632 
0.181505 
0.181455 
0.182012 
0.181448 
0.181128 
0.181545 
0.181634 
0.180994 
0.181381 
0.181968 
0.182002 
0.181935 
0.181012 
0.180884 
0.181259 
0.181636 
0.18217 
0.180871 
0.181715 
0.181873 
0.182484 
0.182139 
0.180907 
0.181495 
0.181226 
0.181816 
0.181285 
0.180814 
0.182187 
0.1813 
0.181907 
0.182105 
0.181314 
0.181256 
0.181958 
0.181224 
0.181782 
0.180622 
0.181295 
0.181298 
0.181497 
0.181628 
0.18185 
0.182043 
0.181345 
0.181134 
0.181808 
0.180988 
0.181102 
0.18191 
0.180949 
0.181968 
0.181429 
0.181591 
0.18105 
0.180813 
0.181413 
0.18143 
0.181596 
0.181789 
0.181274 
0.181503 
0.181608 
0.181427 
0.18085 
0.181307 
0.181373 
0.18111 
0.181286 
0.181174 
0.181234 
0.181011 
0.1708 
0.171548 
0.171772 
0.170802 
0.171196 
0.17164 
0.171354 
0.170648 
0.171486 
0.170821 
0.170628 
0.171381 
0.170993 
0.170738 
0.170798 
0.171222 
0.171296 
0.171178 
0.170397 
0.171073 
0.171026 
0.171202 
0.171302 
0.170905 
0.170921 
0.170975 
0.171284 
0.170412 
0.170505 
0.170473 
0.171032 
0.171034 
0.170908 
0.172006 
0.17069 
0.17044 
0.171089 
0.170932 
0.171314 
0.170776 
0.171069 
0.170254 
0.171031 
0.170657 
0.17109 
0.171359 
0.170937 
0.170416 
0.171288 
0.171526 
0.17109 
0.171349 
0.170846 
0.170788 
0.171001 
0.171246 
0.171222 
0.171255 
0.171298 
0.171487 
0.171118 
0.171346 
0.170695 
0.17102 
0.170937 
0.170833 
0.171098 
0.171109 
0.170748 
0.170573 
0.170592 
0.17088 
0.170616 
0.170924 
0.171141 
0.171168 
0.171687 
0.170971 
0.171333 
0.171234 
0.170039 
0.171023 
0.170605 
0.17102 
0.171221 
0.170699 
0.171437 
0.170567 
0.171379 
0.171156 
0.170458 
0.170742 
0.171025 
0.170816 
0.170479 
0.17047 
0.170319 
0.170789 
0.17148 
0.170845 
0.161341 
0.160621 
0.161131 
0.16147 
0.160825 
0.160767 
0.16119 
0.160519 
0.161504 
0.16101 
0.160999 
0.160947 
0.161081 
0.161601 
0.161431 
0.161427 
0.161342 
0.161687 
0.160856 
0.16103 
0.16139 
0.161279 
0.161867 
0.161762 
0.161365 
0.161613 
0.161304 
0.161275 
0.161239 
0.160633 
0.16128 
0.161073 
0.161673 
0.161327 
0.160468 
0.161189 
0.160961 
0.161481 
0.160858 
0.161126 
0.161584 
0.161741 
0.16163 
0.161697 
0.160284 
0.160459 
0.160832 
0.161015 
0.160206 
0.161072 
0.160196 
0.160703 
0.161108 
0.16084 
0.160705 
0.160542 
0.160443 
0.160635 
0.160413 
0.160688 
0.161044 
0.161091 
0.161176 
0.160689 
0.160797 
0.161475 
0.160784 
0.161105 
0.161335 
0.16204 
0.160757 
0.160521 
0.160502 
0.160438 
0.161116 
0.16092 
0.16112 
0.161068 
0.160784 
0.161019 
0.16013 
0.160458 
0.160061 
0.160146 
0.160341 
0.160909 
0.160075 
0.160785 
0.160657 
0.161249 
0.160596 
0.160535 
0.160374 
0.160428 
0.161018 
0.160444 
0.160649 
0.160803 
0.16092 
0.160932 
0.151963 
0.151533 
0.151223 
0.151239 
0.150904 
0.15133 
0.151716 
0.151551 
0.151023 
0.151289 
0.151412 
0.151642 