# vtk DataFile Version 3.0
MOAB 4.6.0pre
ASCII
DATASET UNSTRUCTURED_GRID
POINTS 1225 double
0 -0.5 0.5
0 0.5 0.5
0 -0.3333333333 0.5
0 -0.1666666667 0.5
0 0 0.5
0 0.1666666667 0.5
0 0.3333333333 0.5
0 0.5 -0.5
0 0.5 0.3333333333
0 0.5 0.1666666667
0 0.5 0
0 0.5 -0.1666666667
0 0.5 -0.3333333333
0 -0.5 -0.5
0 0.3333333333 -0.5
0 0.1666666667 -0.5
0 0 -0.5
0 -0.1666666667 -0.5
0 -0.3333333333 -0.5
0 -0.5 -0.3333333333
0 -0.5 -0.1666666667
0 -0.5 0
0 -0.5 0.1666666667
0 -0.5 0.3333333333
0 -0.3333333333 0.3333333333
0 -0.1666666667 0.3333333333
0 -6.938893904e-18 0.3333333333
0 0.1666666667 0.3333333333
0 0.3333333333 0.3333333333
0 -0.3333333333 0.1666666667
0 -0.1666666667 0.1666666667
0 -1.387778781e-17 0.1666666667
0 0.1666666667 0.1666666667
0 0.3333333333 0.1666666667
0 -0.3333333333 0
0 -0.1666666667 0
0 0 0
0 0.1666666667 0
0 0.3333333333 0
0 -0.3333333333 -0.1666666667
0 -0.1666666667 -0.1666666667
0 0 -0.1666666667
0 0.1666666667 -0.1666666667
0 0.3333333333 -0.1666666667
0 -0.3333333333 -0.3333333333
0 -0.1666666667 -0.3333333333
0 0 -0.3333333333
0 0.1666666667 -0.3333333333
0 0.3333333333 -0.3333333333
5 -0.5 -0.5
0.2083333333 -0.5 -0.5
0.4166666667 -0.5 -0.5
0.625 -0.5 -0.5
0.8333333333 -0.5 -0.5
1.041666667 -0.5 -0.5
1.25 -0.5 -0.5
1.458333333 -0.5 -0.5
1.666666667 -0.5 -0.5
1.875 -0.5 -0.5
2.083333333 -0.5 -0.5
2.291666667 -0.5 -0.5
2.5 -0.5 -0.5
2.708333333 -0.5 -0.5
2.916666667 -0.5 -0.5
3.125 -0.5 -0.5
3.333333333 -0.5 -0.5
3.541666667 -0.5 -0.5
3.75 -0.5 -0.5
3.958333333 -0.5 -0.5
4.166666667 -0.5 -0.5
4.375 -0.5 -0.5
4.583333333 -0.5 -0.5
4.791666667 -0.5 -0.5
5 -0.5 0.5
5 -0.5 0.3333333333
5 -0.5 0.1666666667
5 -0.5 0
5 -0.5 -0.1666666667
5 -0.5 -0.3333333333
4.791666667 -0.5 0.5
4.583333333 -0.5 0.5
4.375 -0.5 0.5
4.166666667 -0.5 0.5
3.958333333 -0.5 0.5
3.75 -0.5 0.5
3.541666667 -0.5 0.5
3.333333333 -0.5 0.5
3.125 -0.5 0.5
2.916666667 -0.5 0.5
2.708333333 -0.5 0.5
2.5 -0.5 0.5
2.291666667 -0.5 0.5
2.083333333 -0.5 0.5
1.875 -0.5 0.5
1.666666667 -0.5 0.5
1.458333333 -0.5 0.5
1.25 -0.5 0.5
1.041666667 -0.5 0.5
0.8333333333 -0.5 0.5
0.625 -0.5 0.5
0.4166666667 -0.5 0.5
0.2083333333 -0.5 0.5
0.2083333333 -0.5 -0.3333333333
0.4166666667 -0.5 -0.3333333333
0.625 -0.5 -0.3333333333
0.8333333333 -0.5 -0.3333333333
1.041666667 -0.5 -0.3333333333
1.25 -0.5 -0.3333333333
1.458333333 -0.5 -0.3333333333
1.666666667 -0.5 -0.3333333333
1.875 -0.5 -0.3333333333
2.083333333 -0.5 -0.3333333333
2.291666667 -0.5 -0.3333333333
2.5 -0.5 -0.3333333333
2.708333333 -0.5 -0.3333333333
2.916666667 -0.5 -0.3333333333
3.125 -0.5 -0.3333333333
3.333333333 -0.5 -0.3333333333
3.541666667 -0.5 -0.3333333333
3.75 -0.5 -0.3333333333
3.958333333 -0.5 -0.3333333333
4.166666667 -0.5 -0.3333333333
4.375 -0.5 -0.3333333333
4.583333333 -0.5 -0.3333333333
4.791666667 -0.5 -0.3333333333
0.2083333333 -0.5 -0.1666666667
0.4166666667 -0.5 -0.1666666667
0.625 -0.5 -0.1666666667
0.8333333333 -0.5 -0.1666666667
1.041666667 -0.5 -0.1666666667
1.25 -0.5 -0.1666666667
1.458333333 -0.5 -0.1666666667
1.666666667 -0.5 -0.1666666667
1.875 -0.5 -0.1666666667
2.083333333 -0.5 -0.1666666667
2.291666667 -0.5 -0.1666666667
2.5 -0.5 -0.1666666667
2.708333333 -0.5 -0.1666666667
2.916666667 -0.5 -0.1666666667
3.125 -0.5 -0.1666666667
3.333333333 -0.5 -0.1666666667
3.541666667 -0.5 -0.1666666667
3.75 -0.5 -0.1666666667
3.958333333 -0.5 -0.1666666667
4.166666667 -0.5 -0.1666666667
4.375 -0.5 -0.1666666667
4.583333333 -0.5 -0.1666666667
4.791666667 -0.5 -0.1666666667
0.2083333333 -0.5 0
0.4166666667 -0.5 0
0.625 -0.5 0
0.8333333333 -0.5 0
1.041666667 -0.5 0
1.25 -0.5 0
1.458333333 -0.5 0
1.666666667 -0.5 0
1.875 -0.5 0
2.083333333 -0.5 0
2.291666667 -0.5 0
2.5 -0.5 0
2.708333333 -0.5 0
2.916666667 -0.5 0
3.125 -0.5 0
3.333333333 -0.5 0
3.541666667 -0.5 0
3.75 -0.5 0
3.958333333 -0.5 0
4.166666667 -0.5 0
4.375 -0.5 0
4.583333333 -0.5 0
4.791666667 -0.5 0
0.2083333333 -0.5 0.1666666667
0.4166666667 -0.5 0.1666666667
0.625 -0.5 0.1666666667
0.8333333333 -0.5 0.1666666667
1.041666667 -0.5 0.1666666667
1.25 -0.5 0.1666666667
1.458333333 -0.5 0.1666666667
1.666666667 -0.5 0.1666666667
1.875 -0.5 0.1666666667
2.083333333 -0.5 0.1666666667
2.291666667 -0.5 0.1666666667
2.5 -0.5 0.1666666667
2.708333333 -0.5 0.1666666667
2.916666667 -0.5 0.1666666667
3.125 -0.5 0.1666666667
3.333333333 -0.5 0.1666666667
3.541666667 -0.5 0.1666666667
3.75 -0.5 0.1666666667
3.958333333 -0.5 0.1666666667
4.166666667 -0.5 0.1666666667
4.375 -0.5 0.1666666667
4.583333333 -0.5 0.1666666667
4.791666667 -0.5 0.1666666667
0.2083333333 -0.5 0.3333333333
0.4166666667 -0.5 0.3333333333
0.625 -0.5 0.3333333333
0.8333333333 -0.5 0.3333333333
1.041666667 -0.5 0.3333333333
1.25 -0.5 0.3333333333
1.458333333 -0.5 0.3333333333
1.666666667 -0.5 0.3333333333
1.875 -0.5 0.3333333333
2.083333333 -0.5 0.3333333333
2.291666667 -0.5 0.3333333333
2.5 -0.5 0.3333333333
2.708333333 -0.5 0.3333333333
2.916666667 -0.5 0.3333333333
3.125 -0.5 0.3333333333
3.333333333 -0.5 0.3333333333
3.541666667 -0.5 0.3333333333
3.75 -0.5 0.3333333333
3.958333333 -0.5 0.3333333333
4.166666667 -0.5 0.3333333333
4.375 -0.5 0.3333333333
4.583333333 -0.5 0.3333333333
4.791666667 -0.5 0.3333333333
5 0.5 -0.5
4.791666667 0.5 -0.5
4.583333333 0.5 -0.5
4.375 0.5 -0.5
4.166666667 0.5 -0.5
3.958333333 0.5 -0.5
3.75 0.5 -0.5
3.541666667 0.5 -0.5
3.333333333 0.5 -0.5
3.125 0.5 -0.5
2.916666667 0.5 -0.5
2.708333333 0.5 -0.5
2.5 0.5 -0.5
2.291666667 0.5 -0.5
2.083333333 0.5 -0.5
1.875 0.5 -0.5
1.666666667 0.5 -0.5
1.458333333 0.5 -0.5
1.25 0.5 -0.5
1.041666667 0.5 -0.5
0.8333333333 0.5 -0.5
0.625 0.5 -0.5
0.4166666667 0.5 -0.5
0.2083333333 0.5 -0.5
5 -0.3333333333 -0.5
5 -0.1666666667 -0.5
5 0 -0.5
5 0.1666666667 -0.5
5 0.3333333333 -0.5
0.2083333333 0.3333333333 -0.5
0.4166666667 0.3333333333 -0.5
0.625 0.3333333333 -0.5
0.8333333333 0.3333333333 -0.5
1.041666667 0.3333333333 -0.5
1.25 0.3333333333 -0.5
1.458333333 0.3333333333 -0.5
1.666666667 0.3333333333 -0.5
1.875 0.3333333333 -0.5
2.083333333 0.3333333333 -0.5
2.291666667 0.3333333333 -0.5
2.5 0.3333333333 -0.5
2.708333333 0.3333333333 -0.5
2.916666667 0.3333333333 -0.5
3.125 0.3333333333 -0.5
3.333333333 0.3333333333 -0.5
3.541666667 0.3333333333 -0.5
3.75 0.3333333333 -0.5
3.958333333 0.3333333333 -0.5
4.166666667 0.3333333333 -0.5
4.375 0.3333333333 -0.5
4.583333333 0.3333333333 -0.5
4.791666667 0.3333333333 -0.5
0.2083333333 0.1666666667 -0.5
0.4166666667 0.1666666667 -0.5
0.625 0.1666666667 -0.5
0.8333333333 0.1666666667 -0.5
1.041666667 0.1666666667 -0.5
1.25 0.1666666667 -0.5
1.458333333 0.1666666667 -0.5
1.666666667 0.1666666667 -0.5
1.875 0.1666666667 -0.5
2.083333333 0.1666666667 -0.5
2.291666667 0.1666666667 -0.5
2.5 0.1666666667 -0.5
2.708333333 0.1666666667 -0.5
2.916666667 0.1666666667 -0.5
3.125 0.1666666667 -0.5
3.333333333 0.1666666667 -0.5
3.541666667 0.1666666667 -0.5
3.75 0.1666666667 -0.5
3.958333333 0.1666666667 -0.5
4.166666667 0.1666666667 -0.5
4.375 0.1666666667 -0.5
4.583333333 0.1666666667 -0.5
4.791666667 0.1666666667 -0.5
0.2083333333 0 -0.5
0.4166666667 0 -0.5
0.625 0 -0.5
0.8333333333 0 -0.5
1.041666667 0 -0.5
1.25 0 -0.5
1.458333333 0 -0.5
1.666666667 0 -0.5
1.875 0 -0.5
2.083333333 0 -0.5
2.291666667 0 -0.5
2.5 0 -0.5
2.708333333 0 -0.5
2.916666667 0 -0.5
3.125 0 -0.5
3.333333333 0 -0.5
3.541666667 0 -0.5
3.75 0 -0.5
3.958333333 0 -0.5
4.166666667 0 -0.5
4.375 0 -0.5
4.583333333 0 -0.5
4.791666667 0 -0.5
0.2083333333 -0.1666666667 -0.5
0.4166666667 -0.1666666667 -0.5
0.625 -0.1666666667 -0.5
0.8333333333 -0.1666666667 -0.5
1.041666667 -0.1666666667 -0.5
1.25 -0.1666666667 -0.5
1.458333333 -0.1666666667 -0.5
1.666666667 -0.1666666667 -0.5
1.875 -0.1666666667 -0.5
2.083333333 -0.1666666667 -0.5
2.291666667 -0.1666666667 -0.5
2.5 -0.1666666667 -0.5
2.708333333 -0.1666666667 -0.5
2.916666667 -0.1666666667 -0.5
3.125 -0.1666666667 -0.5
3.333333333 -0.1666666667 -0.5
3.541666667 -0.1666666667 -0.5
3.75 -0.1666666667 -0.5
3.958333333 -0.1666666667 -0.5
4.166666667 -0.1666666667 -0.5
4.375 -0.1666666667 -0.5
4.583333333 -0.1666666667 -0.5
4.791666667 -0.1666666667 -0.5
0.2083333333 -0.3333333333 -0.5
0.4166666667 -0.3333333333 -0.5
0.625 -0.3333333333 -0.5
0.8333333333 -0.3333333333 -0.5
1.041666667 -0.3333333333 -0.5
1.25 -0.3333333333 -0.5
1.458333333 -0.3333333333 -0.5
1.666666667 -0.3333333333 -0.5
1.875 -0.3333333333 -0.5
2.083333333 -0.3333333333 -0.5
2.291666667 -0.3333333333 -0.5
2.5 -0.3333333333 -0.5
2.708333333 -0.3333333333 -0.5
2.916666667 -0.3333333333 -0.5
3.125 -0.3333333333 -0.5
3.333333333 -0.3333333333 -0.5
3.541666667 -0.3333333333 -0.5
3.75 -0.3333333333 -0.5
3.958333333 -0.3333333333 -0.5
4.166666667 -0.3333333333 -0.5
4.375 -0.3333333333 -0.5
4.583333333 -0.3333333333 -0.5
4.791666667 -0.3333333333 -0.5
5 0.5 0.5
5 0.3333333333 0.5
5 0.1666666667 0.5
5 0 0.5
5 -0.1666666667 0.5
5 -0.3333333333 0.5
5 0.5 -0.3333333333
5 0.5 -0.1666666667
5 0.5 0
5 0.5 0.1666666667
5 0.5 0.3333333333
5 0.3333333333 0.3333333333
5 0.1666666667 0.3333333333
5 6.938893904e-18 0.3333333333
5 -0.1666666667 0.3333333333
5 -0.3333333333 0.3333333333
5 0.3333333333 0.1666666667
5 0.1666666667 0.1666666667
5 1.387778781e-17 0.1666666667
5 -0.1666666667 0.1666666667
5 -0.3333333333 0.1666666667
5 0.3333333333 0
5 0.1666666667 0
5 0 0
5 -0.1666666667 0
5 -0.3333333333 0
5 0.3333333333 -0.1666666667
5 0.1666666667 -0.1666666667
5 0 -0.1666666667
5 -0.1666666667 -0.1666666667
5 -0.3333333333 -0.1666666667
5 0.3333333333 -0.3333333333
5 0.1666666667 -0.3333333333
5 0 -0.3333333333
5 -0.1666666667 -0.3333333333
5 -0.3333333333 -0.3333333333
0.2083333333 0.5 0.5
0.4166666667 0.5 0.5
0.625 0.5 0.5
0.8333333333 0.5 0.5
1.041666667 0.5 0.5
1.25 0.5 0.5
1.458333333 0.5 0.5
1.666666667 0.5 0.5
1.875 0.5 0.5
2.083333333 0.5 0.5
2.291666667 0.5 0.5
2.5 0.5 0.5
2.708333333 0.5 0.5
2.916666667 0.5 0.5
3.125 0.5 0.5
3.333333333 0.5 0.5
3.541666667 0.5 0.5
3.75 0.5 0.5
3.958333333 0.5 0.5
4.166666667 0.5 0.5
4.375 0.5 0.5
4.583333333 0.5 0.5
4.791666667 0.5 0.5
[...]
POINT_DATA 1225
SCALARS KDE_TALLY_TAG double 1
LOOKUP_TABLE default
0.2742916966 
0.2714207249 
0.2969682903 
0.2999864555 
0.3020089842 
0.2843796004 
0.2610725454 
0.330246275 
0.3069375192 
0.2868207683 
0.2995870735 
0.294113892 
0.3115136362 
0.3286017958 
0.2830378102 
0.2733048399 
0.2628967189 
0.3156964921 
0.3035405647 
0.2825228361 
0.3046394322 
0.3178834381 
0.2769459432 
0.3337395633 
0.2946997111 
0.330522158 
0.2996182646 
0.3104967168 
0.3181832292 
0.3105983805 
0.2865885112 
0.3169836294 
0.3003261494 
0.2920966049 
0.3125194273 
0.278592704 
0.298728221 
0.2984035596 
0.2936470527 
0.3265130486 
0.2987977057 
0.2979852379 
0.3059521268 
0.3184262416 
0.284766966 
0.3268318757 
0.2973890931 
0.2939240308 
0.2991266435 
0.02322591314 
0.2975551008 
0.2709477831 
0.2386764436 
0.21468108 
0.2639086053 
0.2053167009 
0.1545584166 
0.1745942648 
0.1542656328 
0.1718827877 
0.1396556767 
0.1220796154 
0.1144029521 
0.1036731586 
0.0579405138 
0.08112551979 
0.07650138213 
0.06806486774 
0.05847220123 
0.05180077583 
0.03629902028 
0.05710630172 
0.02343531584 
0.02824819879 
0.03556732526 
0.02482482865 
0.03696529764 
0.03847179657 
0.03528589189 
0.038233731 
0.03371051477 
0.06336621798 
0.06689272168 
0.03448472697 
0.07580124708 
0.07562268474 
0.07228517636 
0.0963036987 
0.102191785 
0.1190325386 
0.1100192565 
0.08697648451 
0.1452364814 
0.137887088 
0.1855784061 
0.1998873728 
0.2039403169 
0.2338228365 
0.2434675922 
0.2246312817 
0.2215802684 
0.2672811872 
0.2673597612 
0.2768964759 
0.2464890039 
0.2382399508 
0.2067190739 
0.2067832785 
0.1941496421 
0.1422075209 
0.1507651237 
0.1180812849 
0.1273764251 
0.1073294528 
0.09529558058 
0.0808137146 
0.09288637556 
0.1030660629 
0.0835635291 
0.06774174291 
0.04563470785 
0.04275972049 
0.05469694387 
0.0392661138 
0.01686507598 
0.2733657391 
0.2543875011 
0.263430709 
0.2276879547 
0.2230741412 
0.193665239 
0.2094171345 
0.1637434769 
0.1753672267 
0.1517146738 
0.1246800666 
0.1191780102 
0.1029318729 
0.1104289668 
0.1052516905 
0.068624649 
0.06921208869 
0.09008472001 
0.08851077992 
0.03469408885 
0.0382880318 
0.03332605744 
0.02833226283 
0.2733269788 
0.3063734093 
0.2510031476 
0.2778704901 
0.2114947799 
0.2034041095 
0.1949855506 
0.1653244913 
0.1356634916 
0.17614845 
0.1499909505 
0.1500431735 
0.1079003254 
0.09553309689 
0.0921678256 
0.07030310468 
0.06050774219 
0.05597780898 
0.07119285145 
0.04428241012 
0.05062203257 
0.02370119511 
0.0409680466 
0.2602408752 
0.249843511 
0.2762428576 
0.2575846413 
0.2153317206 
0.2031250087 
0.2146522906 
0.1473199662 
0.1534674338 
0.1741051903 
0.1127881173 
0.09416997285 
0.1183344085 
0.1086589275 
0.08534178293 
0.08913934033 
0.08642913988 
0.07331730152 
0.05984061995 
0.036971872 
0.0311919842 
0.03276182312 
0.03573331949 
0.3210218662 
0.2936731998 
0.2604438935 
0.2392052301 
0.2317229544 
0.2087906133 
0.2253517764 
0.1808357029 
0.1855105907 
0.1639701366 
0.1479808482 
0.09183607587 
0.09030523888 
0.1156636944 
0.08928231976 
0.08660880398 
0.07719835915 
0.04751185268 
0.08163546925 
0.05761981744 
0.0432625217 
0.03357655427 
0.04764145305 
0.02602458295 
0.02927594733 
0.04871517179 
0.03888286142 
0.03967927131 
0.07363609702 
0.05537529798 
0.07479709201 
0.08936740146 
0.0585831078 
0.09701484557 
0.1105364849 
0.1016049635 
0.1532230307 
0.1359203392 
0.1542816871 
0.1903539527 
0.2105583511 
0.2202202589 
0.2125560009 
0.2076509946 
0.2357114768 
0.2595803607 
0.2901544736 
0.03373034289 
0.03977964106 
0.02980326031 
0.04427646947 
0.05036151563 
0.2999553813 
0.3323393138 
0.2484912219 
0.2022968885 
0.2284863017 
0.2183990894 
0.2043049131 
0.1958453859 
0.1816943708 
0.1189396712 
0.1240037041 
0.134013679 
0.1209117446 
0.1114256741 
0.0930609427 
0.06622825298 
0.07904394482 
0.06489817615 
0.06782110246 
0.05895904575 
0.03806565673 
0.03734557553 
0.05398445575 
0.3206460832 
0.2910560579 
0.312951768 
0.2340756119 
0.2492260703 
0.2345295446 
0.2051776596 
0.14981565 
0.191345711 
0.1479634101 
0.1368878024 
0.1285298512 
0.1039483389 
0.08717463077 
0.105991913 
0.06078405357 
0.09720907632 
0.05288193323 
0.06098252621 
0.07021581735 
0.04407726491 
0.04173212907 
0.0290950061 
0.3140795679 
0.283203396 
0.2678418649 
0.2742703939 
0.2361377063 
0.2054522717 
0.1783716834 
0.185184207 
0.1439426377 
0.1426492858 
0.1490421579 
0.1282844082 
0.1263331015 
0.1061888175 
0.09363752959 
0.07457350927 
0.06026044796 
0.08407639739 
0.07615488454 
0.04954616855 
0.03449294697 
0.05339691535 
0.03015472369 
0.3333734905 
0.2887176204 
0.3202660561 
0.2763821834 
0.2347673551 
0.2153213045 
0.1982786089 
0.1606379652 
0.1476853337 
0.1330274475 
0.09961652439 
0.1147360802 
0.1071360822 
0.07477680733 
0.07356570065 
0.08646204756 
0.06577499849 
0.05322275662 
0.0583393923 
0.04694196513 
0.03746157861 
0.05709894679 
0.04721244433 
0.2772945916 
0.2569240605 
0.2536457093 
0.271292492 
0.230925647 
0.2173712685 
0.2284055082 
0.1432452841 
0.1430819796 
0.1322657101 
0.1630926353 
0.1344463677 
0.112244361 
0.09132730132 
0.07821388665 
0.0793007604 
0.06087963744 
0.05461921718 
0.06647390726 
0.04686625031 
0.04046315143 
0.04150970301 
0.02289353781 
0.03684087627 
0.02526380571 
0.02554410999 
0.03515188224 
0.02097068232 
0.0348300396 
0.04261471533 
0.03760981018 
0.02729214521 
0.03826136733 
0.02214869465 
0.04067548754 
0.04192832814 
0.03178155229 
0.03664125603 
0.04408000936 
0.03820493786 
0.04688023142 
0.04967194315 
0.04601459586 
0.03615012348 
0.04457529805 
0.03665230788 
0.03783668058 
0.02704384152 
0.03893523065 
0.04416442514 
0.04404036576 
0.03121582633 
0.03057179319 
0.04020611538 
0.0426226163 
0.02166465537 
0.02375220002 
0.03609388184 
0.0314623785 
0.2566512404 
0.2786798112 
0.2356025017 
0.2335136774 
0.232494353 
0.1883306288 
0.1884002763 
0.1599389748 
0.17058381 
0.1279286452 
0.1341270459 
0.1440705547 
0.1097731555 
0.06619123761 
0.08041555068 
0.05287986964 
0.07718893816 
0.08071217454 
0.04651424866 
0.04648891705 
0.04963160753 
0.03310088801 
0.03371823811 
0.3010647622 
0.2764264526 
0.2659445681 
0.2468082011 
0.2621994657 
0.221635332 
0.1578578203 
0.1708353666 
0.1777294071 
0.1480072813 
0.1665917048 
0.1108450644 
0.08323555234 
0.1020105698 
0.1131707705 
0.07618216847 
0.08413324958 
0.08220100577 
0.04790270646 
0.0399557142 
0.06194859795 
0.0247272611 
0.04688932518 
0.2685966316 
0.2692084654 
0.2953268393 
0.2771115472 
0.2441860661 
0.2053670042 
0.2012554827 
0.1900667029 
0.1561856978 
0.1373655561 
0.1111832531 
0.1543418762 
0.09507919538 
0.1238787508 
0.07899411113 
0.08081180473 
0.1050424666 
0.0624712252 
0.03081331523 
0.05123745103 
0.041249023 
0.041219255 
0.03383290265 
0.2823228963 
0.2962141604 
0.2537097744 
0.2591214019 
0.2477562452 
0.2083893377 
0.1766646397 
0.1887541605 
0.1810340229 
0.1318589321 
0.145211469 
0.0995565624 
0.08348952966 
0.09950829776 
0.09457665296 
0.08457300295 
0.09625639047 
0.0548489118 
0.04471428189 
0.05781494263 
0.04822096664 
0.04350044399 
0.04473491466 
0.3076547617 
0.3018148117 
0.3164373118 
0.2467209653 
0.2136350103 
0.1841679924 
0.1642883413 
0.1861702131 
0.1394656421 
0.1602686329 
0.1540356918 
0.1303646199 
0.107479605 
0.1060896282 
0.09681357788 
0.08618330994 
0.06311877391 
0.08108700882 
0.05921591477 
0.05798396556 
0.04770920549 
0.04737429854 
0.05487087652 
0.2822612807 
0.2704705818 
0.2321886099 
0.2052933091 
0.2156309246 
0.2034066702 
0.1665692928 
0.1759369592 
0.1349210266 
0.1372840139 
0.1282578658 
0.149284625 
0.09998696273 
0.1000645233 
0.06017162445 
0.08310806562 
0.06704567235 
0.05557807878 
0.03706144594 
0.04384550639 
0.06090950988 
0.02928318592 
0.04612245813 
0.3125690397 
0.2719053256 
0.235761215 
0.2222514993 
0.225690611 
0.2103176374 
0.2045189784 
0.1651304223 
0.1183719614 
0.1391965821 
0.1391870988 
0.1056542983 
0.1044220714 
0.08833439107 
0.08764948298 
0.07421657362 
0.06381786174 
0.06696511055 
0.05411526488 
0.03418970179 
0.03925203599 
0.0330486675 
0.04856808424 
0.2869018319 
0.2401495376 
0.2576538799 
0.2580020726 
0.2044046657 
0.2254139985 
0.198582859 
0.1798506875 
0.1654614737 
0.1379729662 
0.1288572842 
0.09410080905 
0.1067659609 
0.1169182905 
0.0823900827 
0.09002984143 
0.07306151067 
0.05733764124 
0.05807227936 
0.06622630339 
0.0399628434 
0.03457205347 
0.01795645234 
0.2764051421 
0.3060785458 
0.2493313593 
0.2493098727 
0.22938723 
0.2124041996 
0.2195003955 
0.1720833681 
0.167963288 
0.1405040064 
0.126596047 
0.1200447531 
0.08408748774 
0.09011727809 
0.1080888068 
0.06091370085 
0.06658537204 
0.05786461162 
0.0549969407 
0.04411364589 
0.05551060064 
0.04516063853 
0.02614278709 
0.2662989702 
0.3405140825 
0.2733748126 
0.2396641965 
0.2291199257 
0.2532819906 
0.2099260196 
0.2075488317 
0.1404377785 
0.1544976968 
0.1526831051 
0.1040263752 
0.1122058122 
0.1258110714 
0.087239222 
0.09188814291 
0.07879758324 
0.09858345647 
0.0479698469 
0.06068809929 
0.05366794946 
0.04929327601 
0.05115053742 
0.2852437805 
0.244285218 
0.2629199482 
0.1991906182 
0.2285524648 
0.1933486233 
0.160686537 
0.1802916508 
0.155149501 
0.1679258169 
0.1287256669 
0.1423710218 
0.1108475903 
0.08243333759 
0.07697134619 
0.08304320319 
0.08082583443 
0.05072788853 
0.06970916611 
0.05361034937 
0.04163060382 
0.03726859099 
0.04441921017 
0.2859429442 
0.2682043741 
0.2424474684 
0.2710106877 
0.230690716 
0.1858049479 
0.1987285743 
0.159101506 
0.1627520402 
0.1490954604 
0.1468203105 
0.1088364243 
0.110946649 
0.09408015953 
0.09737621227 
0.07850003359 
0.07156727237 
0.05632818407 
0.06083965296 
0.05192933512 
0.03788406734 
0.04718805695 
0.04905209652 
0.3161505256 
0.2790644501 
0.255852836 
0.2554224385 
0.2794392249 
0.1795713143 
0.180382606 
0.1831432468 
0.1811349763 
0.1436643824 
0.1614347387 
0.121614105 
0.1065325444 
0.09923471899 
0.08951845756 
0.08776858303 
0.09244290784 
0.0508212711 
0.04747125624 
0.07098466427 
0.03464705807 
0.05434587897 
0.04099610652 
0.3209416225 
0.2943997592 
0.2885815556 
0.2277178888 
0.1939264783 
0.2058879116 
0.2028595896 
0.1474676982 
0.1660364563 
0.1442963794 
0.1203441435 
0.1297964957 
0.1073001535 
0.1108472993 
0.09710898085 
0.1113922457 
0.07942770618 
0.05886076685 
0.06199930549 
0.05282176407 
0.04563143784 
0.04433319879 
0.04471842993 
0.2978160839 
0.2389946544 
0.3107983702 
0.2270619838 
0.23306878 
0.1908044273 
0.1978283514 
0.1535570095 
0.1570303714 
0.125164797 
0.1171350896 
0.1350123275 
0.09702631478 
0.08751576455 
0.1062642825 
0.09492866734 
0.07280588647 
0.06468253777 
0.06180666016 
0.05458694113 
0.06281575198 
0.04098440153 
0.02439881835 
0.2689388623 
0.293931195 
0.2706333537 
0.2624065517 
0.1946012747 
0.1943363736 
0.2011170643 
0.2031763104 
0.1685763883 
0.1650284502 
0.1256748893 
0.11887448 
0.09589200012 
0.09552806418 
0.09448302278 
0.08670396447 
0.06043822479 
0.06353783833 
0.05601778026 
0.0545184409 
0.05695363251 
0.04022436476 
0.05725232365 
0.3458964629 
0.3062561409 
0.3194212615 
0.273832583 
0.2770726052 
0.2216054789 
0.251019505 
0.2209675892 
0.1954300908 
0.1748357963 
0.1534618299 
0.1565121043 
0.1412719333 
0.1013746172 
0.07670963983 
0.07837684172 
0.09227625993 
0.07030080189 
0.07425271691 
0.0447015417 
0.05480490785 
0.03979663328 
0.04579919824 
0.2949181111 
0.2455606723 
0.2760636262 
0.2598479421 
0.2312240569 
0.1975962167 
0.2019416932 
0.1774883873 
0.1632830948 
0.136870597 
0.1431461948 
0.09675719801 
0.1118914411 
0.1075483906 
0.0910035068 
0.07580811792 
0.09312766323 
0.07108785847 
0.05423877343 
0.04194700146 
0.04670298956 
0.04836994411 
0.04029643243 
0.289338313 
0.272291696 
0.2435540721 
0.2396229002 
0.2578403042 
0.2266619352 
0.2186873902 
0.2036362814 
0.1714138258 
0.1070502398 
0.1665130245 
0.117120449 
0.1204647533 
0.08701851381 
0.08966571864 
0.08991051514 
0.06646922124 
0.04054264274 
0.09339944942 
0.03582530584 
0.03614260906 
0.04804169689 
0.03169871216 
0.315028226 
0.2977897109 
0.278090932 
0.2752092457 
0.2685131053 
0.2054612721 
0.1813326776 
0.198814382 
0.2127037777 
0.1415740526 
0.1294896856 
0.1213568425 
0.1179486091 
0.1083813711 
0.07806229978 
0.08627885385 
0.05329412279 
0.09571516107 
0.05845682682 
0.06942125179 
0.03404719568 
0.05772668152 
0.04657287229 
0.2925135887 
0.2746830196 
0.2777097542 
0.2486627329 
0.2619569923 
0.2428096307 
0.1705454807 
0.185969831 
0.186314032 
0.1277049219 
0.1316159082 
0.1304005033 
0.114624422 
0.1091015616 
0.1114977645 
0.08200166013 
0.09300589976 
0.07127266364 
0.0426998295 
0.04929717332 
0.04848216332 
0.04901173469 
0.02829613091 
0.3176803619 
0.2583908559 
0.243667539 
0.2535808968 
0.2370279689 
0.2122565581 
0.1847834446 
0.2140839441 
0.1607801313 
0.151517187 
0.1654092416 
0.138609215 
0.1114472079 
0.08628750975 
0.1019369428 
0.08128338885 
0.05405382655 
0.08141736198 
0.04594539743 
0.05352841681 
0.05362856767 
0.04174301708 
0.03573515146 
0.2450330469 
0.3056147733 
0.2476854396 
0.2333734497 
0.2049698551 
0.2182314196 
0.1822562535 
0.1573288116 
0.1772101648 
0.1331890844 
0.1518961033 
0.1231629076 
0.07690738363 
0.1226936401 
0.1025163085 
0.08715046978 
0.100800008 
0.05202646944 
0.05061116199 
0.04101651661 
0.05426517845 
0.03447748176 
0.04767290496 
0.2910177069 
0.3154357732 
0.2718369956 
0.2668504507 
0.2353794371 
0.2143989788 
0.194234239 
0.2127648528 
0.1472525694 
0.1734962526 
0.1367845389 
0.1183800231 
0.1056133263 
0.08492286518 
0.07158023626 
0.09948989087 
0.08440824694 
0.06507149717 
0.06221389367 
0.05180575599 
0.06371314558 
0.06381457942 
0.04602183203 
0.3129631449 
0.2693139601 
0.2544806345 
0.2867986456 
0.2389035863 
0.2298120648 
0.1868362193 
0.1743473151 
0.2133189702 
0.170037243 
0.140128074 
0.1351809089 
0.1458538616 
0.09722445197 
0.101703951 
0.09010076078 
0.05536838631 
0.07734771388 
0.04063281654 
0.03378790609 
0.06145836311 
0.04627888583 
0.03084515435 
0.2866823127 
0.2746364462 
0.2838905407 
0.2733005886 
0.2351922748 
0.1993645394 
0.171780232 
0.2071652142 
0.1507064519 
0.1419027882 
0.1650449219 
0.09215282647 
0.1144683883 
0.1002018988 
0.1069033115 
0.07131886581 
0.08035945753 
0.06759124119 
0.06351017733 
0.06391174161 
0.05427720769 
0.03376179681 
0.04804624085 
0.2955801831 
0.316061542 
0.2592207749 
0.2652950608 
0.2315683259 
0.2173254142 
0.2106770083 
0.1903819266 
0.1933527105 
0.1545116166 
0.1193210526 
0.1088214294 
0.1338359495 
0.1199330266 
0.08960884595 
0.09477074716 
0.07019954075 
0.0892981019 
0.05393314697 
0.04981164006 
0.04334990133 
0.04883756331 
0.03254250959 
0.2846438167 
0.2617304651 
0.293089017 
0.2237545682 
0.2266443554 
0.2302208833 
0.1849117969 
0.169417746 
0.1538156146 
0.1575814957 
0.1409705981 
0.1159097768 
0.1196504268 
0.104562227 
0.07522512489 
0.08692997438 
0.1004469352 
0.07790255524 
0.05512008087 
0.05750910809 
0.05144850722 
0.05630177784 
0.04856835846 
0.3069757216 
0.3089507374 
0.264556169 
0.288534239 
0.2501957185 
0.2776527093 
0.2068589567 
0.2204246837 
0.1653205529 
0.1684114127 
0.1271842578 
0.1534878244 
0.1117599613 
0.1470365489 
0.07596050653 
0.09416030329 
0.09685276001 
0.06876672647 
0.06241943766 
0.06150455396 
0.02584526827 
0.04085589384 
0.0391883803 
0.2995925238 
0.3128290156 
0.2881902701 
0.2139633516 
0.2535407581 
0.1971164373 
0.2024586902 
0.1944575753 
0.1615888744 
0.147522792 
0.1233355282 
0.1302609373 
0.1434065047 
0.129316666 
0.09324383542 
0.06257430397 
0.0669596088 
0.05012482155 
0.06549721606 
0.06929962859 
0.04753779623 
0.03831973706 
0.03848584535 
0.2586210759 
0.2654109182 
0.2425463706 
0.2582193156 
0.2686319556 
0.1773628041 
0.1641486156 
0.1668159777 
0.162036133 
0.1678722284 
0.1373913182 
0.1155789702 
0.09639826007 
0.108722388 
0.1000899794 
0.06930106767 
0.07561740813 
0.04584448901 
0.05811540313 
0.04155365961 
0.04681698793 
0.04352136243 
0.0269186459 
0.2995081435 
0.2644957283 
0.2176810701 
0.2514827173 
0.1939929684 
0.200570033 
0.1954933912 
0.1849166875 
0.1559234909 
0.1487258231 
0.1417614959 
0.104521545 
0.09706057868 
0.09934869692 
0.07588941202 
0.07724400573 
0.06283958569 
0.06331067949 
0.06727273319 
0.05592569565 
0.04520526311 
0.03509825725 
0.04196548257 
0.3220418773 
0.287385899 
0.2708817284 
0.2543168568 
0.2335898654 
0.1931411784 
0.2061232173 
0.2139507451 
0.1692612914 
0.1529033569 
0.13889975 
0.1182040265 
0.1188301262 
0.1210710963 
0.07660556462 
0.08346245362 
0.09451575349 
0.06519915676 
0.05756042718 
0.06191511189 
0.06850995747 
0.05626984196 
0.04079561195 
0.2911857066 
0.3415990959 
0.2413724289 
0.2387014121 
0.2215685182 
0.2300929128 
0.2277164692 
0.2058862625 
0.1697675267 
0.164923221 
0.124301286 
0.1158646481 
0.1222159325 
0.1068915996 
0.07208147167 
0.06739869241 
0.06384923877 
0.07338757878 
0.07494704448 
0.03895007798 
0.0515909113 
0.03636500659 
0.05305928744 
0.301909983 
0.2858764642 
0.2811063163 
0.2599356031 
0.2377844643 
0.236674586 
0.2421714456 
0.1734233903 
0.1663085342 
0.1574048895 
0.1755712727 
0.1095661979 
0.1118318325 
0.1335593648 
0.08854755001 
0.08476029449 
0.05898927385 
0.07616266224 
0.03938087283 
0.09836861444 
0.04948761683 
0.06316657376 
0.05096372752 
0.290079828 
0.3004463963 
0.2420128429 
0.2261666253 
0.2214194365 
0.2070078402 
0.1969680215 
0.2023331292 
0.1529106693 
0.1384095071 
0.1407101541 
0.1185481025 
0.119465971 
0.1103519978 
0.08881930383 
0.08975023784 
0.0838663626 
0.06421316889 
0.05333852699 
0.03747102641 
0.04343508818 
0.04565888711 
0.03555405672 
SCALARS KDE_ERROR_TAG double 1
LOOKUP_TABLE default
0.07027266171 
0.069065163 
0.07280935569 
0.06792648572 
0.06440189009 
0.06650360317 
0.06551453852 
0.07111685109 
0.06895821999 
0.06868360996 
0.06808977684 
0.07071200405 
0.06987592071 
0.07169639833 
0.06375339704 
0.06507852323 
0.06693967835 
0.06355604121 
0.06971996468 
0.06971423851 
0.07234292177 
0.07062579271 
0.0659601598 
0.0652726771 
0.05815428851 
0.06681597621 
0.05441508124 
0.05895551762 
0.06070177481 
0.05713122801 
0.05998038651 
0.0595940752 
0.06147023871 
0.06076516222 
0.06586416996 
0.05883871866 
0.06031408195 
0.06502148284 
0.07166382157 
0.05628363385 
0.06231341476 
0.06730010452 
0.05970591471 
0.0606385814 
0.05798882866 
0.0610654122 
0.06449506681 
0.05802764141 
0.05794870337 
0.1788438556 
0.07586271601 
0.08002125703 
0.07964315209 
0.08849689996 
0.0929340926 
0.09306844431 
0.09957918049 
0.107605081 
0.1156925972 
0.1133979479 
0.1230632287 
0.1243464794 
0.1340904484 
0.1553691238 
0.130791961 
0.193181371 
0.1684902154 
0.1690089564 
0.1727049799 
0.1783022977 
0.1670876093 
0.259356056 
0.1839980965 
0.2556086327 
0.272384652 
0.1679174839 
0.2645099661 
0.3009194519 
0.1555317391 
0.2538105668 
0.2177817133 
0.2361472717 
0.1686075135 
0.1482994708 
0.2107655216 
0.1844201869 
0.1310799975 
0.1817322245 
0.1545806116 
0.1503102178 
0.1171064901 
0.1188948909 
0.1147282109 
0.1090925731 
0.125186747 
0.1094770538 
0.1140357696 
0.08454631686 
0.09241826406 
0.0838214241 
0.07835481464 
0.07175708252 
0.07098096256 
0.08010180264 
0.08008721316 
0.08622326905 
0.08975196977 
0.1018845309 
0.1001729359 
0.09760772291 
0.1204739001 
0.1205295831 
0.1132159782 
0.1500024849 
0.1218989125 
0.1602986265 
0.1729164102 
0.1797806653 
0.1503225517 
0.1965348647 
0.2136052581 
0.1650341552 
0.2134143973 
0.2981171519 
0.1943296267 
0.07169036362 
0.07689339067 
0.07818241839 
0.07838241002 
0.09575137055 
0.09672526814 
0.1087501223 
0.1163271492 
0.1145499305 
0.1177935389 
0.1320607148 
0.1249446928 
0.1216196266 
0.1405837334 
0.1604008501 
0.152037463 
0.1920447038 
0.1684085302 
0.1981540881 
0.1949450489 
0.2104879577 
0.183501054 
0.1948746951 
0.07338851873 
0.07685402927 
0.08142014036 
0.08171180979 
0.09631987526 
0.08599398947 
0.09882370085 
0.09973444511 
0.1240389987 
0.1177658843 
0.123083375 
0.1258682611 
0.1444335774 
0.1443512391 
0.1342884331 
0.1939684276 