# vtk DataFile Version 3.0
MOAB 4.99 (Alpha)
ASCII
DATASET UNSTRUCTURED_GRID
POINTS 1455 double
0 -1 1
0 1 1
0 -0.6 1
0 -0.2 1
0 0.2 1
0 0.6 1
0 1 -1
0 1 0.6
0 1 0.2
0 1 -0.2
0 1 -0.6
0 -1 -1
0 0.6 -1
0 0.2 -1
0 -0.2 -1
0 -0.6 -1
0 -1 -0.6
0 -1 -0.2
0 -1 0.2
0 -1 0.6
0 -0.4052531952 0.6719438381
0 0.001326739737 0.6398182875
0 0.4084466782 0.6730790076
0 0.671668119 0.4109975243
0 0.6409559612 0.002665308352
0 0.6741562537 -0.4067531861
0 0.4126332896 -0.6703225438
0 0.005823851008 -0.6385848783
0 -0.4033337139 -0.671818987
0 -0.6657077798 -0.40925766
0 -0.6331965555 -5.201324309e-05
0 -0.6677757402 0.4090861353
0 -0.7346057871 0.7362059947
0 0.7360229594 0.7368153064
0 0.7373579087 -0.735415146
0 -0.7338082987 -0.7362153294
0 -0.2405618544 0.2463031768
0 0.2488935914 0.2473010883
0 0.2507661259 -0.2443109294
0 -0.2398134703 -0.2452073142
0 0.004821098151 0.001021505389
10 -1 -1
0.4347826087 -1 -1
0.8695652174 -1 -1
1.304347826 -1 -1
1.739130435 -1 -1
2.173913043 -1 -1
2.608695652 -1 -1
3.043478261 -1 -1
3.47826087 -1 -1
3.913043478 -1 -1
4.347826087 -1 -1
4.782608696 -1 -1
5.217391304 -1 -1
5.652173913 -1 -1
6.086956522 -1 -1
6.52173913 -1 -1
6.956521739 -1 -1
7.391304348 -1 -1
7.826086957 -1 -1
8.260869565 -1 -1
8.695652174 -1 -1
9.130434783 -1 -1
9.565217391 -1 -1
10 -1 1
10 -1 0.6
10 -1 0.2
10 -1 -0.2
10 -1 -0.6
9.565217391 -1 1
9.130434783 -1 1
8.695652174 -1 1
8.260869565 -1 1
7.826086957 -1 1
7.391304348 -1 1
6.956521739 -1 1
6.52173913 -1 1
6.086956522 -1 1
5.652173913 -1 1
5.217391304 -1 1
4.782608696 -1 1
4.347826087 -1 1
3.913043478 -1 1
3.47826087 -1 1
3.043478261 -1 1
2.608695652 -1 1
2.173913043 -1 1
1.739130435 -1 1
1.304347826 -1 1
0.8695652174 -1 1
0.4347826087 -1 1
0.729629442 -1 -0.6635577637
1.097265427 -1 -0.6333359435
1.522135506 -1 -0.6308235067
1.951105291 -1 -0.6130855746
2.386536729 -1 -0.5934161458
2.823859431 -1 -0.586753865
3.259542314 -1 -0.5848398819
3.694634853 -1 -0.584345348
4.129557936 -1 -0.584231999
4.564424969 -1 -0.5842176273
4.999266496 -1 -0.5842326218
5.434093124 -1 -0.5842603478
5.86891044 -1 -0.584284892
6.303722477 -1 -0.5842041234
6.740497682 -1 -0.5872447606
7.17853636 -1 -0.604840092
7.612487836 -1 -0.6249179335
8.043508498 -1 -0.6324969398
8.475051627 -1 -0.6333705128
8.905141927 -1 -0.6320726723
9.274499795 -1 -0.6625696607
9.618080371 -1 0.4534228266
9.605025893 -1 0.005759502745
9.602204827 -1 -0.4480684861
9.29127961 -1 0.6570365146
8.891385226 -1 0.5766678087
8.450879826 -1 0.6567623596
8.033893805 -1 0.6725101008
7.609220558 -1 0.6720587385
7.17939841 -1 0.6533893783
6.743151184 -1 0.6327611638
6.305426726 -1 0.6257083233
5.869733142 -1 0.6237509075
5.434706141 -1 0.6232827821
4.999837258 -1 0.6231940531
4.564998272 -1 0.6231910572
4.130157488 -1 0.623202528
3.695301843 -1 0.6232056182
3.260414897 -1 0.6231538348
2.825446968 -1 0.6228035785
2.388159104 -1 0.6259810265
1.950539128 -1 0.6444959038
1.520128153 -1 0.6621228004
1.097390765 -1 0.6595347394
0.7310877198 -1 0.679806638
0.4044857632 -1 -0.4489170224
0.4175823302 -1 0.008909367834
0.4057227558 -1 0.4613044543
0.8547206088 -1 -0.2424675395
1.314631244 -1 -0.2838449871
1.719928235 -1 -0.2739550436
2.151052546 -1 -0.1902895037
2.602062315 -1 -0.1748569237
3.040983539 -1 -0.1704571464
3.476779265 -1 -0.1691507245
3.911893224 -1 -0.1688163875
4.346837699 -1 -0.1687506767
4.781727085 -1 -0.1687577095
5.216594141 -1 -0.1687794543
5.651465535 -1 -0.1687464498
6.086448901 -1 -0.168331152
6.524679442 -1 -0.1685030003
6.978019961 -1 -0.1788951307
7.417362993 -1 -0.2627111926
7.833175134 -1 -0.2830034261
8.253264074 -1 -0.2852212995
8.680212218 -1 -0.2673173674
9.163547715 -1 -0.2313041368
9.234449674 -1 0.2641354036
8.571256509 -1 0.3532649028
8.22655036 -1 0.357366883
7.824339587 -1 0.3578007366
7.415241621 -1 0.3415264745
6.980163881 -1 0.2559152612
6.527279434 -1 0.2391265816
6.087711896 -1 0.2346751191
5.651918084 -1 0.2334073933
5.21687986 -1 0.2331162518
4.781983676 -1 0.2330731546
4.347099995 -1 0.2330773252
3.912189528 -1 0.2330605574
3.477203671 -1 0.2329123829
3.04194917 -1 0.2321634642
2.602932037 -1 0.2324913253
2.150426899 -1 0.244779401
1.717657025 -1 0.3265783522
1.312396003 -1 0.3326543537
0.8555711239 -1 0.276143407
1.171107499 -1 0.0235605818
1.515325982 -1 0.02644511905
1.850878138 -1 0.02671166497
2.376618449 -1 0.02803107472
2.821981765 -1 0.02983517985
3.259228911 -1 0.03136699407
3.694516422 -1 0.0320014571
4.129505111 -1 0.03214270461
4.564412114 -1 0.03216052339
4.99929619 -1 0.03216306062
5.434214405 -1 0.03224943524
5.869386104 -1 0.03275122766
6.306529918 -1 0.03424188712
6.75253568 -1 0.03691092797
7.284272996 -1 0.04123614861
7.635525476 -1 0.04025475777
8.035800866 -1 0.04038813082
8.434077209 -1 0.05361852586
8.829154758 -1 0.1248441894
10 1 -1
9.565217391 1 -1
9.130434783 1 -1
8.695652174 1 -1
8.260869565 1 -1
7.826086957 1 -1
7.391304348 1 -1
6.956521739 1 -1
6.52173913 1 -1
6.086956522 1 -1
5.652173913 1 -1
5.217391304 1 -1
4.782608696 1 -1
4.347826087 1 -1
3.913043478 1 -1
3.47826087 1 -1
3.043478261 1 -1
2.608695652 1 -1
2.173913043 1 -1
1.739130435 1 -1
1.304347826 1 -1
0.8695652174 1 -1
0.4347826087 1 -1
10 -0.6 -1
10 -0.2 -1
10 0.2 -1
10 0.6 -1
9.276850506 0.661381088 -1
8.908485259 0.6286162415 -1
8.47965234 0.6261570305 -1
8.048994442 0.611135059 -1
7.613416601 0.5928548605 -1
7.176126727 0.5866265669 -1
6.740455053 0.5848138383 -1
6.305364771 0.5843403054 -1
5.87044207 0.5842310322 -1
5.435575165 0.5842174245 -1
5.000733867 0.5842328179 -1
4.565907797 0.5842629665 -1
4.131091728 0.5843051848 -1
3.696282075 0.584347957 -1
3.26147611 0.5842925469 -1
2.824715885 0.5873791941 -1
2.386701371 0.6050580731 -1
1.952692618 0.6253074524 -1
1.523556767 0.6331965912 -1
1.098505812 0.6357601094 -1
0.7316278391 0.6658713023 -1
9.61830436 -0.4545736914 -1
9.606494419 -0.007178640383 -1
9.603750984 0.4471115132 -1
0.7304784797 -0.6762057791 -1
1.098582316 -0.6578505635 -1
1.525075232 -0.6691576773 -1
1.953955476 -0.6706288449 -1
2.385206046 -0.6528753995 -1
2.821873271 -0.6325591071 -1
3.259706569 -0.625609134 -1
3.695429689 -0.623689904 -1
4.130465386 -0.6232402561 -1
4.565335636 -0.6231626964 -1
5.000171249 -0.6231673354 -1
5.435003486 -0.6231853934 -1
5.869842904 -0.6232013996 -1
6.304698284 -0.6232055052 -1
6.739585276 -0.6231545192 -1
7.174553524 -0.6228086196 -1
7.611786261 -0.6260849584 -1
8.044244342 -0.643164859 -1
8.458491102 -0.6513107133 -1
8.893464783 -0.5797488044 -1
9.290025903 -0.6600407766 -1
0.4055501769 0.4505116454 -1
0.4185084188 -0.006113389705 -1
0.405788194 -0.4592719478 -1
9.167747397 0.2269409626 -1
8.6896413 0.2586105465 -1
8.27697214 0.2634724813 -1
7.847381506 0.1873121213 -1
7.397677869 0.1742449114 -1
6.958975659 0.1703372904 -1
6.523214482 0.1691276574 -1
6.088105931 0.1688120712 -1
5.653162441 0.1687503059 -1
5.218273851 0.1687604544 -1
4.783409985 0.1687962356 -1
4.348556862 0.1688391633 -1
3.913692559 0.1688310811 -1
3.478709825 0.1684512141 -1
3.040473377 0.1686905338 -1
2.587075884 0.1792444561 -1
2.147425164 0.2634456463 -1
1.733888106 0.2851179166 -1
1.3188287 0.2888165751 -1
0.8566707613 0.2479287524 -1
9.236583012 -0.2675541231 -1
0.8567689813 -0.2736232806 -1
1.320720246 -0.3368936771 -1
1.737126442 -0.351794602 -1
2.148529043 -0.3397386073 -1
2.584622722 -0.2553417335 -1
3.037783606 -0.2388922461 -1
3.477420478 -0.2345484397 -1
3.913230918 -0.2333249498 -1
4.348269377 -0.2330585899 -1
4.783157257 -0.2330329441 -1
5.218023748 -0.2330543897 -1
5.652901536 -0.2330734538 -1
6.087810722 -0.2330606691 -1
6.522795537 -0.2329176543 -1
6.958043619 -0.2321953235 -1
7.396947647 -0.2327645358 -1
7.844898082 -0.2463621049 -1
8.25635661 -0.3320874254 -1
8.583304075 -0.3504847652 -1
8.839247872 -0.1284648796 -1
8.463653131 -0.0548666705 -1
8.137852294 -0.03650631964 -1
7.621726276 -0.02939240202 -1
7.177911198 -0.03009441439 -1
6.740757324 -0.03141200751 -1
6.305481668 -0.0320096487 -1
5.870495157 -0.03214293643 -1
5.435590394 -0.03215427079 -1
5.00071621 -0.03213266097 -1
4.56584837 -0.03211403379 -1
4.130937429 -0.03217832383 -1
3.695763445 -0.0326477736 -1
3.258596821 -0.03407473449 -1
2.812488897 -0.03657474742 -1
2.280139474 -0.04020912381 -1
1.930008426 -0.03697934944 -1
1.535547774 -0.02962759909 -1
1.177707293 -0.02067984585 -1
10 1 1
10 0.6 1
10 0.2 1
10 -0.2 1
10 -0.6 1
10 1 -0.6
10 1 -0.2
10 1 0.2
10 1 0.6
10 0.4052531952 0.6719438381
10 -0.001326739737 0.6398182875
10 -0.4084466782 0.6730790076
10 -0.671668119 0.4109975243
10 -0.6409559612 0.002665308352
10 -0.6741562537 -0.4067531861
10 -0.4126332896 -0.6703225438
10 -0.005823851008 -0.6385848783
10 0.4033337139 -0.671818987
10 0.6657077798 -0.40925766
10 0.6331965555 -5.201324309e-05
10 0.6677757402 0.4090861353
10 0.7346057871 0.7362059947
10 -0.7360229594 0.7368153064
10 -0.7373579087 -0.735415146
10 0.7338082987 -0.7362153294
10 0.2405618544 0.2463031768
10 -0.2488935914 0.2473010883
10 -0.2507661259 -0.2443109294
10 0.2398134703 -0.2452073142
10 -0.004821098151 0.001021505389
0.4347826087 1 1
0.8695652174 1 1
1.304347826 1 1
1.739130435 1 1
2.173913043 1 1
2.608695652 1 1
3.043478261 1 1
3.47826087 1 1
3.913043478 1 1
4.347826087 1 1
4.782608696 1 1
5.217391304 1 1
5.652173913 1 1
6.086956522 1 1
6.52173913 1 1
6.956521739 1 1
7.391304348 1 1
7.826086957 1 1
8.260869565 1 1
8.695652174 1 1
9.130434783 1 1
9.565217391 1 1
9.276850506 -0.661381088 1
8.908485259 -0.6286162415 1
8.47965234 -0.6261570305 1
8.048994442 -0.611135059 1
7.613416601 -0.5928548605 1
7.176126727 -0.5866265669 1
6.740455053 -0.5848138383 1
6.305364771 -0.5843403054 1
5.87044207 -0.5842310322 1
5.435575165 -0.5842174245 1
5.000733867 -0.5842328179 1
4.565907797 -0.5842629665 1
4.131091728 -0.5843051848 1
3.696282075 -0.584347957 1
3.26147611 -0.5842925469 1
2.824715885 -0.5873791941 1
2.386701371 -0.6050580731 1
1.952692618 -0.6253074524 1
1.523556767 -0.6331965912 1
1.098505812 -0.6357601094 1
0.7316278391 -0.6658713023 1
9.61830436 0.4545736914 1
9.606494419 0.007178640383 1
9.603750984 -0.4471115132 1
[...]
POINT_DATA 1455
SCALARS KDE_TALLY_TAG double 1
LOOKUP_TABLE default
0.01736235823 
0.01593321185 
0.01914760195 
0.01767815684 
0.01574762736 
0.01779192492 
0.01528596473 
0.01502500194 
0.01721844844 
0.01690094804 
0.0151726163 
0.01940507706 
0.01705949328 
0.01429536622 
0.01614019885 
0.01964071628 
0.0223120722 
0.01980325596 
0.01850353279 
0.01832721488 
0.01734970674 
0.01453980498 
0.01442144727 
0.01537069172 
0.01620743469 
0.01383668687 
0.01556643706 
0.01341993364 
0.01753696002 
0.01979381842 
0.01817041934 
0.01844369482 
0.01845363428 
0.01551676989 
0.01675028926 
0.02122718678 
0.01593895352 
0.01363897143 
0.01288965698 
0.01585115525 
0.01325071347 
0.002989320343 
0.02100764369 
0.01697653291 
0.01719858783 
0.01793090639 
0.01788690741 
0.02098265141 
0.02214362798 
0.0193506809 
0.01585229168 
0.01390922609 
0.01387859518 
0.01363479047 
0.01169965801 
0.009486743326 
0.009169788433 
0.008347795658 
0.006794641346 
0.005914863143 
0.00571378105 
0.005768261168 
0.00486755934 
0.003759697807 
0.005427106215 
0.00359222341 
0.002653510481 
0.00253477722 
0.00281188131 
0.005023708612 
0.006262598334 
0.006485455199 
0.005994582397 
0.007719750451 
0.009096445144 
0.01051452774 
0.01106544494 
0.0107570221 
0.01075461075 
0.009872150787 
0.01055170971 
0.01342682568 
0.01868646212 
0.01998946965 
0.01688296328 
0.01699048128 
0.01759328404 
0.01864836846 
0.02025191161 
0.02054941175 
0.01982510363 
0.02139300121 
0.01895291624 
0.01681080556 
0.01883386793 
0.02090595029 
0.02019984508 
0.01797856746 
0.01653236584 
0.01434960786 
0.01222403753 
0.01203098254 
0.01374940809 
0.01289257651 
0.01220690771 
0.01093943694 
0.007394263231 
0.006279566869 
0.005499729814 
0.0060847971 
0.006090825658 
0.004613945378 
0.003423153899 
0.002831136833 
0.002895648323 
0.005073521869 
0.005451814352 
0.004914184305 
0.005253472549 
0.007699605405 
0.009151561357 
0.009032095108 
0.01057146323 
0.01059177117 
0.009194248988 
0.00891796198 
0.01059455486 
0.01486843526 
0.01890907089 
0.02018950222 
0.01942703247 
0.02029403409 
0.02079989412 
0.01873766472 
0.01936108776 
0.0212164834 
0.0250263464 
0.0228998408 
0.02319125593 
0.02033510448 
0.01762511504 
0.01828539499 
0.02008421526 
0.01926277845 
0.01766752227 
0.01831831811 
0.01851878508 
0.0148752119 
0.01127663207 
0.01134223102 
0.01237170082 
0.01344457346 
0.0122131027 
0.009394933747 
0.00621890462 
0.005141247552 
0.005363517539 
0.005771847052 
0.004312467335 
0.003632600205 
0.005347282208 
0.005143904215 
0.006599621003 
0.00892752625 
0.009849980947 
0.01112089858 
0.0121960609 
0.0102270421 
0.009612174557 
0.01192534435 
0.0148954295 
0.01879939735 
0.02089188848 
0.02067694714 
0.01935338114 
0.0190561205 
0.01806443536 
0.01561226025 
0.01997681623 
0.01607286046 
0.01522133293 
0.01800255919 
0.01818648465 
0.01763010972 
0.02046841171 
0.02003312816 
0.01785840436 
0.01399312067 
0.01058219145 
0.01072808633 
0.01222124962 
0.01281958184 
0.01075134475 
0.008846482277 
0.007279965344 
0.005605316833 
0.005646005774 
0.005026406728 
0.004566470066 
0.004369796415 
0.003588132511 
0.004286907543 
0.006129263097 
0.006830174392 
0.007838648294 
0.008709383846 
0.009209234838 
0.01079364044 
0.01084995158 
0.01111290902 
0.01173627046 
0.01166555906 
0.01129921554 
0.01202306939 
0.01363462655 
0.01453111762 
0.01528715182 
0.01806971537 
0.02249537114 
0.02363836425 
0.02079005776 
0.003425847916 
0.004720887943 
0.002720057204 
0.002734980927 
0.002799374206 
0.003044920892 
0.004652516308 
0.007184278622 
0.008123770915 
0.006981638309 
0.007550176304 
0.0128949068 
0.01413290621 
0.01069382645 
0.0109505365 
0.01165096551 
0.01291510674 
0.01579184711 
0.01645187596 
0.01637240137 
0.01697958258 
0.01756694206 
0.01873638544 
0.02060808893 
0.02135833078 
0.004805605346 
0.005103129958 
0.002950541209 
0.01864367073 
0.01722549118 
0.01810865613 
0.01731535233 
0.01912076658 
0.0220646719 
0.02188574752 
0.01769657303 
0.01450979141 
0.01431931853 
0.01437801754 
0.01339792027 
0.01014289828 
0.01028684788 
0.01119492316 
0.01034144626 
0.008154651252 
0.005730518163 
0.005010449094 
0.004670813806 
0.00441496244 
0.01847289617 
0.01654581588 
0.02023729076 
0.0045600996 
0.005873972856 
0.00847826271 
0.01058437568 
0.007648557977 
0.006392990873 
0.01108245385 
0.01394733872 
0.01155545803 
0.0111040717 
0.01372167208 
0.01553845191 
0.01571322648 
0.01821941277 
0.01965023098 
0.01786557815 
0.0183635053 
0.01858842204 
0.01657137792 
0.0162657419 
0.005832268562 
0.01654460698 
0.01628833973 
0.01630646594 
0.01621458162 
0.0163092124 
0.01836011954 
0.01696339764 
0.01446931412 
0.0150056376 
0.01525853098 
0.01474511405 
0.01297406266 
0.01278232298 
0.01135796062 
0.00830569905 
0.008273000571 
0.009362187358 
0.006763819959 
0.005298354663 
0.005544268022 
0.007781010143 
0.009740238644 
0.009168692963 
0.007167073241 
0.008609711527 
0.0131383443 
0.01323589893 
0.0117463985 
0.01446017416 
0.01595316341 
0.01529652343 
0.01654372184 
0.01815289889 
0.0176998088 
0.01662012776 
0.01757402715 
0.01622877276 
0.01424904085 
0.003594468547 
0.003150729106 
0.003399999408 
0.003664470001 
0.004209187397 
0.003883461554 
0.003720554744 
0.003113517468 
0.00233875545 
0.003150093211 
0.004977247389 
0.005205642167 
0.004242490818 
0.003473252321 
0.003024533253 
0.005325940324 
0.005924187406 
0.003471862374 
0.003417358122 
0.003436965058 
0.002388245524 
0.002364562291 
0.004610978446 
0.002584150329 
0.003224409543 
0.003466224417 
0.003609633336 
0.005038840212 
0.004557142669 
0.003842645638 
0.02064974728 
0.01961423984 
0.01867871418 
0.01922589374 
0.01861682798 
0.01964574671 
0.01903860813 
0.01821133616 
0.01685961793 
0.01283546299 
0.01057970095 
0.009101937042 
0.007026814215 
0.007252070694 
0.007930482078 
0.006538606594 
0.005381121223 
0.007324188662 
0.009614888579 
0.008594245499 
0.005895469013 
0.003937336102 
0.005957421954 
0.008211141259 
0.007922217274 
0.006816280319 
0.007699020622 
0.008438915543 
0.009721065697 
0.01118991197 
0.01061604769 
0.01040745187 
0.01135808764 
0.01302299755 
0.01425855329 
0.01553211658 
0.01846322852 
0.01945087174 
0.01778836681 
0.01977618109 
0.02344071747 
0.02428811627 
0.0210299829 
0.004254912 
0.005293993475 
0.004137171685 
0.01927308942 
0.01777508977 
0.01806340508 
0.01987044771 
0.02122343689 
0.01960361319 
0.01783782934 
0.01709348006 
0.01428129998 
0.01127628965 
0.009746752239 
0.008969054506 
0.009044301668 
0.007915003483 
0.00554342839 
0.00450636771 
0.005288904205 
0.006382442804 
0.006640899656 
0.006638460064 
0.005114680748 
0.02145567749 
0.01748432736 
0.01847800628 
0.006525347353 
0.007276767823 
0.007558218455 
0.007830010573 
0.007450100245 
0.008262650096 
0.009554984385 
0.009796238136 
0.009864437536 
0.01195685805 
0.01412576783 
0.01623542002 
0.01660522907 
0.01565261105 
0.01865255193 
0.01920462296 
0.01794678969 
0.02110085984 
0.02411830347 
0.02166800129 
0.00653595154 
0.01661801028 
0.01668024085 
0.01741174257 
0.01962744389 
0.02086230634 
0.02053746013 
0.01783598224 
0.01737312665 
0.01511219327 
0.01155081473 
0.01074612546 
0.00941928658 
0.007858854473 
0.007925535785 
0.007213675846 
0.006711244163 
0.007009465581 
0.006195522134 
0.006045106835 
0.006934730559 
0.006910648549 
0.007511742362 
0.007750056 
0.007650348123 
0.008553190865 
0.008645938892 
0.008379691173 
0.01033039604 
0.01211853728 
0.01486422005 
0.01811472685 
0.01706327321 
0.0188565847 
0.02033037955 
0.01709960878 
0.01691215546 
0.0180611865 
0.01939552306 
0.0195413987 
0.01781836487 
0.01729100038 
0.01950238543 
0.02015856185 
0.01785332001 
0.01750062005 
0.0185112883 
0.01552326131 
0.01213259519 
0.0114817676 
0.01037453581 
0.009530100055 
0.009158320916 
0.008068221547 
0.006114442688 
0.005496910956 
0.006186311491 
0.007479444938 
0.006507166843 
0.004033403197 
0.002875329447 
0.003477785157 
0.002869036668 
0.002845390705 
0.003446495505 
0.005327863567 
0.006671779542 
0.008106508817 
0.008756952516 
0.009144338394 
0.01019127314 
0.009796886545 
0.009903531746 
0.01033696521 
0.01022886485 
0.01073143418 
0.01207397557 
0.01301835573 
0.01498057324 
0.01568529279 
0.0174856643 
0.02166013067 
0.02502527167 
0.02336197184 
0.02049444008 
0.02265572519 
0.02082624857 
0.02087442207 
0.01823511504 
0.01894976387 
0.02051293974 
0.01752839381 
0.01458307028 
0.01772324716 
0.01890403332 
0.01400138536 
0.01227487537 
0.01124724975 
0.009898883654 
0.01133354508 
0.01066060426 
0.008987746206 
0.006977565978 
0.005682363442 
0.005594106989 
0.005497339793 
0.004330913817 
0.002793008355 
0.004733095258 
0.005461783868 
0.007263211912 
0.009549570661 
0.01083847209 
0.0109207315 
0.00970925404 
0.008558659208 
0.009578417246 
0.009947931121 
0.01189101257 
0.01757092441 
0.01743157227 
0.01440755761 
0.01516421663 
0.01671488399 
0.0202223542 
0.02151004251 
0.02032823023 
0.02083959831 
0.02131401649 
0.02148532708 
0.01828147354 
0.01527779695 
0.01646270924 
0.02027494917 
0.01682806353 
0.01176731016 
0.01023742853 
0.008841071411 
0.009120268425 
0.01084103219 
0.01031543369 
0.009306933415 
0.007879555626 
0.005130272897 
0.005040493844 
0.004139886195 
0.008733046432 
0.009414033805 
0.008173482162 
0.008213153971 
0.006943409115 
0.02115262523 
0.0199511057 
0.01745631338 
0.0188916453 
0.01101988095 
0.01176000266 
0.01086225012 
0.01331752681 
0.01096550535 
0.01577933034 
0.01079178768 
0.0206328789 
0.02270387299 
0.01900126065 
0.02060452019 
0.02130930596 
0.01948808497 
0.00908479644 
0.009198080019 
0.009729217819 
0.009201980724 
0.009262117703 
0.008483305095 
0.01048855942 
0.01000840657 
0.008512127224 
0.01539666069 
0.01785171074 
0.01544940275 
0.01759849753 
0.01527468078 
0.01582913599 
0.0145335602 
0.0158342777 
0.01855192404 
0.009061404855 
0.009739684807 
0.01047907714 
0.007094432168 
0.009359125164 
0.004509772819 
0.006685296116 
0.007068536139 
0.009134544007 
0.009108062448 
0.008774056376 
0.008850935465 
0.02014830645 
0.01996476256 
0.02179686166 
0.02257064559 
0.01925532187 
0.02080919007 
0.01870383176 
0.01716310348 
0.008301201893 
0.007903843449 
0.008444229729 
0.007374461025 
0.00757726724 
0.008348211771 
0.008361770729 
0.008288291126 
0.00810657815 
0.008403482267 
0.008943081201 
0.008321573216 
0.008831849104 
0.008973055789 
0.01891521253 
0.01735346763 
0.004254624984 
0.005038625191 
0.00471338248 
0.003467725825 
0.02126158156 
0.01690723312 
0.01692148629 
0.01812833458 
0.007857249649 
0.00773793532 
0.009081128963 
0.007034514485 
0.009488606202 
0.007043207457 
0.007721265839 
0.009929855081 
0.009139481344 
0.007520153016 
0.0168997094 
0.01775980016 
0.0184535129 
0.0160442404 
0.01658307782 
0.01739332469 
0.0163788427 
0.02063887437 
0.01527652635 
0.01815678849 
0.01604839469 
0.02001448829 
0.01708230356 
0.02068126333 
0.01721481081 
0.006562179927 
0.00517697697 
0.02022922241 
0.01974523536 
0.02007071072 
0.006245169173 
0.007340707607 
0.007415514923 
0.02026307729 
0.0210216943 
0.02006103841 
0.01945768437 
0.01656278783 
0.01738596909 
0.02322776096 
0.02077299422 
0.01933273125 
0.01657113316 
0.01619774966 
0.01672072551 
0.0140362661 
0.0156676628 
0.01771271766 
0.01295611671 
0.0140038278 
0.01612548539 
0.01783439961 
0.02088588819 
0.01699076604 
0.01176474576 
0.01188825349 
0.01162528082 
0.0128417695 
0.01943891353 
0.02038042496 
0.02068445913 
0.0199745481 
0.02057559438 
0.01804981948 
0.01934677724 
0.01971497455 
0.01832465949 
0.02025504772 
0.01282253969 
0.01048134277 
0.0109536412 
0.01560101705 
0.01908661604 
0.02030700032 
0.02006602264 
0.0188092495 
0.01043000769 
0.01022981558 
0.008414002239 
0.01054734925 
0.006879482158 
0.01175841171 
0.01074791325 
0.007483203208 
0.008835278871 
0.009061687606 
0.009392356894 
0.01062975551 
0.01155388521 
0.006418261899 
0.005986781214 
0.007337015905 
0.007553169515 
0.008502537988 
0.01002967982 
0.009059218503 
0.009985903114 
0.01239943729 
0.01264883005 
0.0114253094 
0.01097667546 
0.01354053255 
0.01011519879 
0.01244305625 
0.01262414427 
0.01008088771 
0.009881925252 
0.00902636824 
0.01067561273 
0.008007871832 
0.01144327594 
0.01159563906 
0.01007021865 
0.01822305769 
0.016970856 
0.02110037914 
0.01806481837 
0.01779677101 
0.01813203022 
0.01769742287 
0.008957168695 
0.009984582806 
0.009704506471 
0.01204756666 
0.01147100223 
0.01172045369 
0.01148875596 
0.01400271177 
0.01364560281 
0.01318108367 
0.01001762233 
0.01382840344 
0.01075664275 
0.01381418648 
0.0127784659 
0.007813617153 
0.006788702578 
0.008585135087 
0.007062084798 
0.006738967338 
0.009273896622 
0.00928040126 
0.009685555292 
0.00832515805 
0.005049817594 
0.003809322871 
0.003843909305 
0.004059825098 
0.01390635385 
0.0122191617 
0.009896137017 
0.01011700993 
0.01094505864 
0.008099627022 
0.00990639043 
0.01099969105 
0.008400930436 
0.008865625209 
0.0129145517 
0.01502628307 
0.01354259907 
0.01402732687 
0.01223371383 
0.01155304204 
0.01759546058 
0.01442832886 
0.01508922377 
0.008293098366 
0.008193430467 
0.008467789195 
0.007932474726 
0.0095454438 
0.007505551803 
0.02025663405 
0.02166359617 
0.02014410942 
0.01944541706 
0.008841128026 
0.009129126163 
0.01071051249 
0.02101003807 
0.007176011796 
0.006831963034 
0.006437636491 
0.008875800574 
0.008243818332 
0.007134316858 
0.008120115151 
0.008891091781 
0.008022913996 
0.01740911102 
0.02117511652 
0.02142958391 
0.02176390511 
0.01899428237 
0.02181279622 
0.01760250448 
0.007354421785 
0.01742886427 
0.0173066621 
0.01613143198 
0.008099424604 
0.02157394559 
0.02260176675 
0.02135887777 
0.01010684366 
0.008637842294 
0.009720518549 
0.009541567245 
0.01399083701 
0.01710570155 
0.01173431491 
0.01963858313 
0.01786559713 
0.008966453825 
0.008440115206 
0.01427194551 
0.01331086462 
0.01882498294 
0.02035668454 
0.01884482555 
0.0151891492 
0.01857277663 
0.01827322794 
0.007451563592 
0.01571066125 
0.01516989546 
0.01698302768 
0.02074650468 
0.01761774337 
0.008192776273 
0.02025749027 
0.01929792992 
0.01918046979 
0.01943629084 
0.01876764628 
0.01929318635 
0.0213370853 
0.02115033362 
0.01847482296 
0.02129801206 
0.01748928279 
0.01873737881 
0.009298066859 
0.01146932261 
0.00875835068 
0.01075739635 
0.009828227159 
0.01178537717 
0.01102101471 
0.008208870973 
0.01068391925 
0.01186419049 
0.01727564382 
0.02137935723 
0.01806972533 
0.01190856753 
0.01209911646 
0.01267044299 
0.0108668924 
0.01237625289 
0.007911096092 
0.007024608713 
0.009658147883 
0.01203924924 
0.01365713148 
0.01131580267 
0.007274104372 
0.007107547796 
0.005082097946 
0.006340746444 
0.007108129561 
0.006011522881 
0.005759870508 
0.003232521145 
0.004149672479 
0.01425134126 
0.01319811262 
0.0149114262 
0.01385124554 
0.01399250532 
0.01254814002 
0.01483095832 
0.015259028 
0.01264596746 
0.01276456433 
0.01046404933 
0.008770113836 
0.01053852173 
0.008051896375 
0.00983326825 
0.009719933172 
0.01015656182 
0.009216781241 
0.01042369368 
0.009531062088 
0.01330576758 
0.01338415257 
0.01946857606 
0.01866442987 
0.02005866531 
0.01807310373 
0.01707220304 
0.01625071867 
0.01680464926 
0.01865231917 
0.01810127498 
0.01686894052 
0.01653036089 
0.009845777194 
0.007153389646 
0.01124659629 
0.009008617944 
0.01618155848 
0.01569456513 
0.01777238734 
0.011245139 
0.01362010779 
0.0153136504 
0.01319944725 
0.01158819615 
0.01231792307 
0.01475241363 
0.01643646929 
0.01199472069 
0.01375808501 
0.02071177721 
0.01565240082 
0.009192232613 
0.008880120677 
0.01015797562 
0.01932581038 
0.01607282044 
0.01767547053 
0.01773310308 
0.008968875014 
0.01825851275 
0.01697857844 
0.01457069987 
0.01641228189 
0.01413547455 
0.01019460641 
0.007945369528 
0.007319704387 
0.007442667812 
0.008649354259 
0.00775653198 
0.006892533265 
0.01056057137 
0.009542601945 
0.01078986862 
0.009975231168 
0.01067059854 
0.009934892584 
0.01680596374 
0.01153748347 
0.01094774593 
0.01043272879 
0.00957992942 
0.007943788721 
0.01023064867 
0.008219933927 
0.01074667523 
0.009836705875 
0.008736401252 
0.01009188916 
0.009719387151 
0.008963606394 
0.008103122309 
0.007865684621 
0.0189057247 
0.006811601606 
0.01656779154 
0.004063541502 
0.005852235571 
0.005538544447 
0.00446906057 
0.005977377246 
0.007946290355 
0.01260763172 
0.01710940055 
0.01700853755 
0.003554963705 
0.007275221937 
0.006594699976 
0.01720060121 
0.01587425691 
0.01569624063 
0.02017897262 
0.01783068852 
0.01969406866 
0.0177044274 
0.01565591302 
0.01572453793 
0.01672039941 
0.01804010607 
0.01126589536 
0.01302268419 
0.02144053434 
0.01967069709 
0.01773366177 
0.01692093797 
0.01916765744 
0.01657398481 
0.0159640433 
0.01726329569 
0.0176479307 
0.0163133345 
0.00998111868 
0.01695781691 
0.009827952942 
0.01153351889 
0.009884238553 
0.01071169773 
0.01245531502 
0.0188731125 
0.006522303606 
0.005480994306 
0.006394899902 
0.00661382117 
0.007075305704 
0.009587642821 
0.01832527085 
0.01955255948 
0.01994176538 
0.02146635436 
0.01419217335 
0.009415552456 
0.01301094522 
0.008647875852 
0.009700581076 
0.009780607182 
0.009681948823 
0.00955306688 
0.01033402808 
0.009688790653 
0.01701725823 
0.01925433134 
0.005625740124 
0.008755701982 
0.006459398944 
0.009854525785 
0.01025631647 
0.006442771004 
0.006715114267 
0.007581978619 
0.007113826743 
0.007405474085 
0.004845783544 
0.005423073208 
0.005923240254 
0.01020276444 
0.01040628713 
0.01022772838 
0.01071366956 
0.01041514471 
0.01000074903 
0.01028517445 
0.01713309295 
0.01206490986 
0.01140718985 
0.009334556072 
0.01918887873 
0.01774529671 
0.01122346973 
0.01052760896 
0.01122175659 
0.01187740923 
0.01179307905 
0.01066789373 
0.007579414336 
0.005788779165 
0.0138322028 
0.01156710392 
0.0197235532 
0.02038032868 
0.02031619153 
0.01906114926 
0.01051820479 
0.01910449658 
0.02029764136 
0.006764190655 
0.006865539391 
0.006206726532 
0.007154861866 
0.01821953744 
0.01726656076 
0.008503432648 
0.008457230403 
0.008449322779 
0.008424779966 
0.008274712172 
0.008038382505 
0.005462662435 
0.003931099905 
0.01531002775 
0.01934777226 
0.01482736506 
0.01509847404 
0.005875366654 
0.005232843668 
0.006893457407 
0.009339951696 
0.009825780565 
0.01060265611 
0.007680241904 
0.02087572713 
0.02086750828 
0.01057455425 
0.005193472731 
0.01951737257 
0.01357676231 
0.01443521397 
0.01457022512 
0.01686507294 
0.01897892781 
0.01008841055 
0.01618103584 
0.01252104287 
0.0161939546 
0.01352574312 
0.01243600557 
0.01536429223 
0.01778006914 
0.00944584187 
0.01057965231 
0.009651958437 
0.0103890435 
0.009704291402 
0.01107111217 
0.01055064157 
0.01084475122 
0.01102885714 
0.009757854999 
0.0102376177 
0.01253932646 
0.01603063145 
0.02128549688 
0.01791540375 
0.0236535178 
0.02190539049 
0.01229770173 
0.01177627997 
0.01203787609 
0.01271446752 
0.01222269046 
0.01294626703 
0.01296842986 
0.01257484108 
0.01106605217 
0.01219500335 
0.01229903361 
0.01368760042 
0.01163982594 
0.01854799488 
0.01637349529 
0.0198337593 
0.01862197105 
0.01821903383 
0.01100940545 
0.008175765887 
0.006460542107 
0.007141298591 
0.005760683602 
0.006049567305 
0.006420279313 
0.006919614819 
0.009421838992 
0.007303030313 
0.006936129431 
0.005674379054 
0.005361335905 
0.004422928055 
0.00357561512 
0.003836187009 
0.0029424333 
0.003320971848 
0.004816326509 
0.005389622548 
0.01152233687 
0.01187084421 
0.01271644396 
0.01985962008 
0.01981983964 
0.01196762471 
0.01232390396 
0.01096546134 
0.01034665686 
0.007732363418 
0.007075690474 
0.01928389793 
0.01025916742 
0.01098109303 
0.01116815297 
0.009604688377 
0.01021685635 
0.0105625152 
0.01228556274 
0.01097135666 
0.01038045236 
0.01168258712 
0.01209047351 
0.01218939687 
0.01199435689 
0.01342593059 
0.01984031608 
0.02040400328 
0.01213795188 
0.01799686264 
0.01850512373 
0.02021992254 
0.01845565364 
0.02187027719 
0.01947816147 
0.01931174764 
0.0190907525 
0.0195509071 
0.01304289227 
0.01515489454 
0.0126390491 
0.01267008826 
0.008749281035 
0.01058299766 