# vtk DataFile Version 3.0
MOAB 4.8.3pre
ASCII
DATASET UNSTRUCTURED_GRID
POINTS 1225 double
0 -0.5 0.5
0 0.5 0.5
0 -0.3333333333 0.5
0 -0.1666666667 0.5
0 0 0.5
0 0.1666666667 0.5
0 0.3333333333 0.5
0 0.5 -0.5
0 0.5 0.3333333333
0 0.5 0.1666666667
0 0.5 0
0 0.5 -0.1666666667
0 0.5 -0.3333333333
0 -0.5 -0.5
0 0.3333333333 -0.5
0 0.1666666667 -0.5
0 0 -0.5
0 -0.1666666667 -0.5
0 -0.3333333333 -0.5
0 -0.5 -0.3333333333
0 -0.5 -0.1666666667
0 -0.5 0
0 -0.5 0.1666666667
0 -0.5 0.3333333333
0 -0.3333333333 0.3333333333
0 -0.1666666667 0.3333333333
0 -6.938893904e-18 0.3333333333
0 0.1666666667 0.3333333333
0 0.3333333333 0.3333333333
0 -0.3333333333 0.1666666667
0 -0.1666666667 0.1666666667
0 -1.387778781e-17 0.1666666667
0 0.1666666667 0.1666666667
0 0.3333333333 0.1666666667
0 -0.3333333333 0
0 -0.1666666667 0
0 0 0
0 0.1666666667 0
0 0.3333333333 0
0 -0.3333333333 -0.1666666667
0 -0.1666666667 -0.1666666667
0 0 -0.1666666667
0 0.1666666667 -0.1666666667
0 0.3333333333 -0.1666666667
0 -0.3333333333 -0.3333333333
0 -0.1666666667 -0.3333333333
0 0 -0.3333333333
0 0.1666666667 -0.3333333333
0 0.3333333333 -0.3333333333
2.5 -0.5 -0.5
0.2083333333 -0.5 -0.5
0.4166666667 -0.5 -0.5
0.625 -0.5 -0.5
0.8333333333 -0.5 -0.5
1.041666667 -0.5 -0.5
1.25 -0.5 -0.5
1.458333333 -0.5 -0.5
1.666666667 -0.5 -0.5
1.875 -0.5 -0.5
2.083333333 -0.5 -0.5
2.291666667 -0.5 -0.5
2.5 -0.5 0.5
2.5 -0.5 0.3333333333
2.5 -0.5 0.1666666667
2.5 -0.5 0
2.5 -0.5 -0.1666666667
2.5 -0.5 -0.3333333333
2.291666667 -0.5 0.5
2.083333333 -0.5 0.5
1.875 -0.5 0.5
1.666666667 -0.5 0.5
1.458333333 -0.5 0.5
1.25 -0.5 0.5
1.041666667 -0.5 0.5
0.8333333333 -0.5 0.5
0.625 -0.5 0.5
0.4166666667 -0.5 0.5
0.2083333333 -0.5 0.5
0.2083333333 -0.5 -0.3333333333
0.4166666667 -0.5 -0.3333333333
0.625 -0.5 -0.3333333333
0.8333333333 -0.5 -0.3333333333
1.041666667 -0.5 -0.3333333333
1.25 -0.5 -0.3333333333
1.458333333 -0.5 -0.3333333333
1.666666667 -0.5 -0.3333333333
1.875 -0.5 -0.3333333333
2.083333333 -0.5 -0.3333333333
2.291666667 -0.5 -0.3333333333
0.2083333333 -0.5 -0.1666666667
0.4166666667 -0.5 -0.1666666667
0.625 -0.5 -0.1666666667
0.8333333333 -0.5 -0.1666666667
1.041666667 -0.5 -0.1666666667
1.25 -0.5 -0.1666666667
1.458333333 -0.5 -0.1666666667
1.666666667 -0.5 -0.1666666667
1.875 -0.5 -0.1666666667
2.083333333 -0.5 -0.1666666667
2.291666667 -0.5 -0.1666666667
0.2083333333 -0.5 0
0.4166666667 -0.5 0
0.625 -0.5 0
0.8333333333 -0.5 0
1.041666667 -0.5 0
1.25 -0.5 0
1.458333333 -0.5 0
1.666666667 -0.5 0
1.875 -0.5 0
2.083333333 -0.5 0
2.291666667 -0.5 0
0.2083333333 -0.5 0.1666666667
0.4166666667 -0.5 0.1666666667
0.625 -0.5 0.1666666667
0.8333333333 -0.5 0.1666666667
1.041666667 -0.5 0.1666666667
1.25 -0.5 0.1666666667
1.458333333 -0.5 0.1666666667
1.666666667 -0.5 0.1666666667
1.875 -0.5 0.1666666667
2.083333333 -0.5 0.1666666667
2.291666667 -0.5 0.1666666667
0.2083333333 -0.5 0.3333333333
0.4166666667 -0.5 0.3333333333
0.625 -0.5 0.3333333333
0.8333333333 -0.5 0.3333333333
1.041666667 -0.5 0.3333333333
1.25 -0.5 0.3333333333
1.458333333 -0.5 0.3333333333
1.666666667 -0.5 0.3333333333
1.875 -0.5 0.3333333333
2.083333333 -0.5 0.3333333333
2.291666667 -0.5 0.3333333333
2.5 0.5 -0.5
2.291666667 0.5 -0.5
2.083333333 0.5 -0.5
1.875 0.5 -0.5
1.666666667 0.5 -0.5
1.458333333 0.5 -0.5
1.25 0.5 -0.5
1.041666667 0.5 -0.5
0.8333333333 0.5 -0.5
0.625 0.5 -0.5
0.4166666667 0.5 -0.5
0.2083333333 0.5 -0.5
2.5 -0.3333333333 -0.5
2.5 -0.1666666667 -0.5
2.5 0 -0.5
2.5 0.1666666667 -0.5
2.5 0.3333333333 -0.5
0.2083333333 0.3333333333 -0.5
0.4166666667 0.3333333333 -0.5
0.625 0.3333333333 -0.5
0.8333333333 0.3333333333 -0.5
1.041666667 0.3333333333 -0.5
1.25 0.3333333333 -0.5
1.458333333 0.3333333333 -0.5
1.666666667 0.3333333333 -0.5
1.875 0.3333333333 -0.5
2.083333333 0.3333333333 -0.5
2.291666667 0.3333333333 -0.5
0.2083333333 0.1666666667 -0.5
0.4166666667 0.1666666667 -0.5
0.625 0.1666666667 -0.5
0.8333333333 0.1666666667 -0.5
1.041666667 0.1666666667 -0.5
1.25 0.1666666667 -0.5
1.458333333 0.1666666667 -0.5
1.666666667 0.1666666667 -0.5
1.875 0.1666666667 -0.5
2.083333333 0.1666666667 -0.5
2.291666667 0.1666666667 -0.5
0.2083333333 0 -0.5
0.4166666667 0 -0.5
0.625 0 -0.5
0.8333333333 0 -0.5
1.041666667 0 -0.5
1.25 0 -0.5
1.458333333 0 -0.5
1.666666667 0 -0.5
1.875 0 -0.5
2.083333333 0 -0.5
2.291666667 0 -0.5
0.2083333333 -0.1666666667 -0.5
0.4166666667 -0.1666666667 -0.5
0.625 -0.1666666667 -0.5
0.8333333333 -0.1666666667 -0.5
1.041666667 -0.1666666667 -0.5
1.25 -0.1666666667 -0.5
1.458333333 -0.1666666667 -0.5
1.666666667 -0.1666666667 -0.5
1.875 -0.1666666667 -0.5
2.083333333 -0.1666666667 -0.5
2.291666667 -0.1666666667 -0.5
0.2083333333 -0.3333333333 -0.5
0.4166666667 -0.3333333333 -0.5
0.625 -0.3333333333 -0.5
0.8333333333 -0.3333333333 -0.5
1.041666667 -0.3333333333 -0.5
1.25 -0.3333333333 -0.5
1.458333333 -0.3333333333 -0.5
1.666666667 -0.3333333333 -0.5
1.875 -0.3333333333 -0.5
2.083333333 -0.3333333333 -0.5
2.291666667 -0.3333333333 -0.5
2.5 0.5 0.5
2.5 0.5 -0.3333333333
2.5 0.5 -0.1666666667
2.5 0.5 0
2.5 0.5 0.1666666667
2.5 0.5 0.3333333333
2.5 0.3333333333 0.5
2.5 0.1666666667 0.5
2.5 0 0.5
2.5 -0.1666666667 0.5
2.5 -0.3333333333 0.5
2.5 0.3333333333 -0.3333333333
2.5 0.3333333333 -0.1666666667
2.5 0.3333333333 -6.938893904e-18
2.5 0.3333333333 0.1666666667
2.5 0.3333333333 0.3333333333
2.5 0.1666666667 -0.3333333333
2.5 0.1666666667 -0.1666666667
2.5 0.1666666667 -1.387778781e-17
2.5 0.1666666667 0.1666666667
2.5 0.1666666667 0.3333333333
2.5 0 -0.3333333333
2.5 0 -0.1666666667
2.5 0 0
2.5 0 0.1666666667
2.5 0 0.3333333333
2.5 -0.1666666667 -0.3333333333
2.5 -0.1666666667 -0.1666666667
2.5 -0.1666666667 0
2.5 -0.1666666667 0.1666666667
2.5 -0.1666666667 0.3333333333
2.5 -0.3333333333 -0.3333333333
2.5 -0.3333333333 -0.1666666667
2.5 -0.3333333333 0
2.5 -0.3333333333 0.1666666667
2.5 -0.3333333333 0.3333333333
0.2083333333 0.5 0.5
0.4166666667 0.5 0.5
0.625 0.5 0.5
0.8333333333 0.5 0.5
1.041666667 0.5 0.5
1.25 0.5 0.5
1.458333333 0.5 0.5
1.666666667 0.5 0.5
1.875 0.5 0.5
2.083333333 0.5 0.5
2.291666667 0.5 0.5
0.2083333333 -0.3333333333 0.5
0.4166666667 -0.3333333333 0.5
0.625 -0.3333333333 0.5
0.8333333333 -0.3333333333 0.5
1.041666667 -0.3333333333 0.5
1.25 -0.3333333333 0.5
1.458333333 -0.3333333333 0.5
1.666666667 -0.3333333333 0.5
1.875 -0.3333333333 0.5
2.083333333 -0.3333333333 0.5
2.291666667 -0.3333333333 0.5
0.2083333333 -0.1666666667 0.5
0.4166666667 -0.1666666667 0.5
0.625 -0.1666666667 0.5
0.8333333333 -0.1666666667 0.5
1.041666667 -0.1666666667 0.5
1.25 -0.1666666667 0.5
1.458333333 -0.1666666667 0.5
1.666666667 -0.1666666667 0.5
1.875 -0.1666666667 0.5
2.083333333 -0.1666666667 0.5
2.291666667 -0.1666666667 0.5
0.2083333333 0 0.5
0.4166666667 0 0.5
0.625 0 0.5
0.8333333333 0 0.5
1.041666667 0 0.5
1.25 0 0.5
1.458333333 0 0.5
1.666666667 0 0.5
1.875 0 0.5
2.083333333 0 0.5
2.291666667 0 0.5
0.2083333333 0.1666666667 0.5
0.4166666667 0.1666666667 0.5
0.625 0.1666666667 0.5
0.8333333333 0.1666666667 0.5
1.041666667 0.1666666667 0.5
1.25 0.1666666667 0.5
1.458333333 0.1666666667 0.5
1.666666667 0.1666666667 0.5
1.875 0.1666666667 0.5
2.083333333 0.1666666667 0.5
2.291666667 0.1666666667 0.5
0.2083333333 0.3333333333 0.5
0.4166666667 0.3333333333 0.5
0.625 0.3333333333 0.5
0.8333333333 0.3333333333 0.5
1.041666667 0.3333333333 0.5
1.25 0.3333333333 0.5
1.458333333 0.3333333333 0.5
1.666666667 0.3333333333 0.5
1.875 0.3333333333 0.5
2.083333333 0.3333333333 0.5
2.291666667 0.3333333333 0.5
0.2083333333 0.5 0.3333333333
0.4166666667 0.5 0.3333333333
0.625 0.5 0.3333333333
0.8333333333 0.5 0.3333333333
1.041666667 0.5 0.3333333333
1.25 0.5 0.3333333333
1.458333333 0.5 0.3333333333
1.666666667 0.5 0.3333333333
1.875 0.5 0.3333333333
2.083333333 0.5 0.3333333333
2.291666667 0.5 0.3333333333
0.2083333333 0.5 0.1666666667
0.4166666667 0.5 0.1666666667
0.625 0.5 0.1666666667
0.8333333333 0.5 0.1666666667
1.041666667 0.5 0.1666666667
1.25 0.5 0.1666666667
1.458333333 0.5 0.1666666667
1.666666667 0.5 0.1666666667
1.875 0.5 0.1666666667
2.083333333 0.5 0.1666666667
2.291666667 0.5 0.1666666667
0.2083333333 0.5 0
0.4166666667 0.5 0
0.625 0.5 0
0.8333333333 0.5 0
1.041666667 0.5 0
1.25 0.5 0
1.458333333 0.5 0
1.666666667 0.5 0
1.875 0.5 0
2.083333333 0.5 0
2.291666667 0.5 0
0.2083333333 0.5 -0.1666666667
0.4166666667 0.5 -0.1666666667
0.625 0.5 -0.1666666667
0.8333333333 0.5 -0.1666666667
1.041666667 0.5 -0.1666666667
1.25 0.5 -0.1666666667
1.458333333 0.5 -0.1666666667
1.666666667 0.5 -0.1666666667
1.875 0.5 -0.1666666667
2.083333333 0.5 -0.1666666667
2.291666667 0.5 -0.1666666667
0.2083333333 0.5 -0.3333333333
0.4166666667 0.5 -0.3333333333
0.625 0.5 -0.3333333333
0.8333333333 0.5 -0.3333333333
1.041666667 0.5 -0.3333333333
1.25 0.5 -0.3333333333
1.458333333 0.5 -0.3333333333
1.666666667 0.5 -0.3333333333
1.875 0.5 -0.3333333333
2.083333333 0.5 -0.3333333333
2.291666667 0.5 -0.3333333333
0.2083333333 -0.3333333333 -0.3333333333
0.4166666667 -0.3333333333 -0.3333333333
0.625 -0.3333333333 -0.3333333333
0.8333333333 -0.3333333333 -0.3333333333
1.041666667 -0.3333333333 -0.3333333333
1.25 -0.3333333333 -0.3333333333
1.458333333 -0.3333333333 -0.3333333333
1.666666667 -0.3333333333 -0.3333333333
1.875 -0.3333333333 -0.3333333333
2.083333333 -0.3333333333 -0.3333333333
2.291666667 -0.3333333333 -0.3333333333
0.2083333333 -0.1666666667 -0.3333333333
0.4166666667 -0.1666666667 -0.3333333333
0.625 -0.1666666667 -0.3333333333
0.8333333333 -0.1666666667 -0.3333333333
1.041666667 -0.1666666667 -0.3333333333
1.25 -0.1666666667 -0.3333333333
1.458333333 -0.1666666667 -0.3333333333
1.666666667 -0.1666666667 -0.3333333333
1.875 -0.1666666667 -0.3333333333
2.083333333 -0.1666666667 -0.3333333333
2.291666667 -0.1666666667 -0.3333333333
0.2083333333 0 -0.3333333333
0.4166666667 1.387778781e-17 -0.3333333333
0.625 -1.387778781e-17 -0.3333333333
0.8333333333 -1.387778781e-17 -0.3333333333
1.041666667 5.551115123e-17 -0.3333333333
1.25 1.387778781e-17 -0.3333333333
[...]
POINT_DATA 1225
SCALARS KDE_TALLY_TAG_0-0.01 double 1
LOOKUP_TABLE default
0.7674578069 
0.7786709265 
0.7690806416 
0.7084893036 
0.7444837831 
0.7568806095 
0.7462983566 
0.7448937465 
0.7770378745 
0.6990104237 
0.7555175679 
0.7868823982 
0.7764165955 
0.7700023728 
0.7387062257 
0.7454066263 
0.7368375239 
0.7362282394 
0.7639034124 
0.7364585452 
0.7383343465 
0.7364607325 
0.7809752617 
0.75009655 
0.7787152017 
0.7682088859 
0.7473211252 
0.7360694864 
0.7380866904 
0.7436905211 
0.7656786259 
0.7564896425 
0.7523270031 
0.7185277302 
0.7414673878 
0.7423089444 
0.7298451346 
0.7252823262 
0.7721072012 
0.7220812638 
0.7466716481 
0.7538438928 
0.7520724367 
0.7690000932 
0.7431696649 
0.7736849698 
0.7484821105 
0.7426989753 
0.7663196289 
0.1454903155 
0.7199889722 
0.7213764608 
0.6765037131 
0.6895488944 
0.6693394436 
0.6116273764 
0.5581594352 
0.4926752575 
0.4789296929 
0.3552652087 
0.3334885646 
0.1604985776 
0.1519878314 
0.1401858918 
0.1541639744 
0.1516971306 
0.1535382414 
0.3221542876 
0.3951846659 
0.4698408676 
0.5179631936 
0.5501175044 
0.6284516385 
0.6202830672 
0.6392758133 
0.6839119434 
0.7452467339 
0.7848959129 
0.7125787841 
0.7261938519 
0.6575744712 
0.6840545588 
0.651467966 
0.6190970465 
0.5740328277 
0.4882490183 
0.4510923201 
0.3903813971 
0.3216914378 
0.7241145086 
0.7317211177 
0.7073557781 
0.6604850935 
0.6462568495 
0.5833070237 
0.5937489411 
0.53386368 
0.4457544729 
0.3774142991 
0.308621775 
0.7468966247 
0.7620020827 
0.7014084318 
0.6457771379 
0.6222971444 
0.5996447614 
0.5496747869 
0.5005928623 
0.4708891684 
0.4022140338 
0.3122697051 
0.7248662797 
0.7026503877 
0.71274995 
0.6671516057 
0.6425354164 
0.5797589837 
0.570496852 
0.5103894049 
0.4518004706 
0.3859944996 
0.3016422487 
0.7448789056 
0.7167012129 
0.7260257631 
0.6609978611 
0.6393502514 
0.5870497928 
0.5615044528 
0.5012401486 
0.4185031005 
0.4117537689 
0.3427177227 
0.1628894381 
0.3024818213 
0.3932101004 
0.442626239 
0.5041827828 
0.5671529205 
0.5990452034 
0.6728576251 
0.652708899 
0.7089880695 
0.7482127859 
0.7217524827 
0.1586896294 
0.1584522025 
0.1548260673 
0.1452758006 
0.148084768 
0.726092939 
0.71940328 
0.7280987885 
0.6648325167 
0.6632219471 
0.5763113243 
0.5669229759 
0.4944198018 
0.4396787964 
0.360978078 
0.3038894301 
0.7434765455 
0.7205904588 
0.7073080069 
0.6812450525 
0.6220222053 
0.6250523442 
0.5752846678 
0.523452022 
0.4791882438 
0.3932592158 
0.3143542018 
0.7436348231 
0.7129742496 
0.7011295978 
0.7071032645 
0.6588414913 
0.6248310691 
0.601502452 
0.4951080142 
0.4549387928 
0.3635325046 
0.3087455087 
0.7803315038 
0.7200762908 
0.7027777309 
0.6909891024 
0.6181045088 
0.5863422489 
0.5744561963 
0.5107654744 
0.4228634324 
0.3730592896 
0.3052610668 
0.749247755 
0.7227869098 
0.7028753737 
0.6611800641 
0.6554705866 
0.5691892645 
0.5727202312 
0.506759029 
0.4502816757 
0.3931514564 
0.2996678551 
0.1533136271 
0.1708665212 
0.15675873 
0.1638240392 
0.157021135 
0.1444329041 
0.1582304077 
0.1599612931 
0.1432176684 
0.1439347339 
0.1674111857 
0.1501179123 
0.1672013352 
0.1708252729 
0.164582879 
0.1550026161 
0.142915499 
0.1640557391 
0.1467395166 
0.1490835003 
0.1482586123 
0.1484737693 
0.15720803 
0.1669800454 
0.16473039 
0.1406247691 
0.153784175 
0.1693568712 
0.1655010133 
0.1436731002 
0.1444958722 
0.1657370063 
0.1538362051 
0.1706384506 
0.1481374626 
0.1617668693 
0.7829720665 
0.7384769636 
0.6979455431 
0.6162836071 
0.5961662579 
0.6135973076 
0.5394325024 
0.5016616921 
0.435783608 
0.3958318908 
0.339250113 
0.7204201917 
0.7479299749 
0.7183761816 
0.6637572057 
0.6153657458 
0.5901460302 
0.5831813975 
0.5159312975 
0.4646296098 
0.4021489897 
0.3351535684 
0.7122542984 
0.749836673 
0.7011105367 
0.6792926451 
0.6522638162 
0.6215459565 
0.554360428 
0.5130307625 
0.4803986979 
0.4300555204 
0.3255384717 
0.7499318118 
0.6800134401 
0.682417775 
0.6722080969 
0.6171475543 
0.6160331394 
0.566184192 
0.5422119443 
0.4475409804 
0.3790703086 
0.32535753 
0.7272554035 
0.6921243682 
0.6952130703 
0.6656575184 
0.6296717823 
0.6054490876 
0.5695278465 
0.4898092778 
0.460783702 
0.3868970658 
0.2846133995 
0.7494896791 
0.7241579063 
0.6847939245 
0.696212128 
0.6507186367 
0.616702234 
0.5689194618 
0.507559747 
0.4489315918 
0.3730210135 
0.3106385367 
0.6986357628 
0.6898122476 
0.6864532428 
0.6735437005 
0.6420573591 
0.6041479467 
0.5759516808 
0.4847309167 
0.4380477235 
0.3788616374 
0.3150277631 
0.7140266363 
0.7016732149 
0.7162673209 
0.7085159805 
0.6577179272 
0.6016005562 
0.555115238 
0.476699053 
0.4536017987 
0.3934689331 
0.333809673 
0.7450589647 
0.727850744 
0.7241702967 
0.6457511193 
0.6339126149 
0.599776186 
0.5471854485 
0.4876715951 
0.4631926354 
0.4079243581 
0.3098889355 
0.7634993461 
0.7124192911 
0.7188341757 
0.6433452405 
0.6314663531 
0.5816428488 
0.5519312189 
0.4802761375 
0.4466669014 
0.3905427011 
0.3318682419 
0.7581729293 
0.7246128591 
0.7291056479 
0.6995634824 
0.6817313056 
0.6001132735 
0.5378634941 
0.513458157 
0.4346209518 
0.3732347925 
0.3223741533 
0.7457697665 
0.7230402915 
0.699286887 
0.6965633108 
0.6653551615 
0.6011060819 
0.5371287565 
0.5270185085 
0.451372592 
0.3947421513 
0.3090083899 
0.7649449467 
0.722283769 
0.7031964743 
0.6839958008 
0.6466482524 
0.5974981868 
0.5735374366 
0.5190563289 
0.4657557696 
0.3777859535 
0.3098416614 
0.7549494849 
0.7059494777 
0.7038412631 
0.683399383 
0.6598654443 
0.5815830979 
0.5743997369 
0.4871988303 
0.4582958174 
0.4081532409 
0.3265296801 
0.7108889262 
0.7327733334 
0.6963016515 
0.7213366713 
0.6265585703 
0.5768261089 
0.583477983 
0.527489357 
0.456540149 
0.3832104082 
0.3073941232 
0.7413302307 
0.7208785209 
0.6960816047 
0.6587685374 
0.6320044439 
0.6240837357 
0.5602495771 
0.5233638894 
0.4965789294 
0.3750162375 
0.3162535524 
0.7192949998 
0.69457336 
0.7066269821 
0.6856212986 
0.6188590369 
0.5848800791 
0.551561082 
0.5178600063 
0.4454741503 
0.386960705 
0.3407491771 
0.7355799026 
0.7591513676 
0.6732569852 
0.6631303066 
0.6537096755 
0.6175531948 
0.5922703077 
0.4963703964 
0.4583728964 
0.3814010637 
0.3201652436 
0.7207369652 
0.7232617557 
0.7234196771 
0.6760475195 
0.5802954208 
0.6483992909 
0.5925740836 
0.5328124784 
0.4837200467 
0.3826762127 
0.312935227 
0.7655464985 
0.7061567711 
0.7287288666 
0.6522361081 
0.6239863902 
0.6067776572 
0.5705453508 
0.5277083319 
0.4531896857 
0.4113837568 
0.3135266243 
0.726817462 
0.7060126692 
0.7359291709 
0.6567534296 
0.6229873258 
0.5938454619 
0.5545095954 
0.4922083937 
0.444788083 
0.3690370828 
0.307826222 
0.7686469599 
0.7363583545 
0.6907317595 
0.6741436101 
0.6345700293 
0.6075329571 
0.564664568 
0.5308371248 
0.442837714 
0.3847096789 
0.3370692652 
0.726754597 
0.7178938561 
0.6839643481 
0.6427731185 
0.6717611617 
0.6106334494 
0.5445470243 
0.5083953251 
0.4214993701 
0.4040970753 
0.3190095904 
0.7585534788 
0.7222330271 
0.691187815 
0.6664990833 
0.6336267208 
0.5957705672 
0.5887133958 
0.5140723367 
0.4432708716 
0.4167819116 
0.3017790659 
0.7362933946 
0.718868079 
0.7288893653 
0.6844983823 
0.6767175014 
0.6303902603 
0.566965676 
0.543269594 
0.4895732905 
0.352744275 
0.3185881444 
0.7275327916 
0.7088889476 
0.6935226489 
0.6810226019 
0.6276513912 
0.6008814501 
0.547237621 
0.4839175791 
0.4492459015 
0.3906018527 
0.3137146401 
0.7339973997 
0.7465557053 
0.6984073762 
0.6374570335 
0.6495269087 
0.5950193803 
0.5789764851 
0.5118892824 
0.4435864686 
0.4109879684 
0.3206139989 
0.729371821 
0.6944969679 
0.7213638818 
0.6946623179 
0.6602938822 
0.6207311318 
0.5887682132 
0.5377506606 
0.4395558234 
0.3886330644 
0.3041795082 
0.7357124488 
0.7334775662 
0.7218163387 
0.6605566613 
0.6670155283 
0.6176481556 
0.5322889205 
0.5196048913 
0.4492427472 
0.4013324153 
0.3229082442 
0.7498300053 
0.729099739 
0.6828416078 
0.6908985807 
0.7055228101 
0.6022520904 
0.5387088662 
0.490198872 
0.4532045256 
0.3641775917 
0.3258336746 
0.704015448 
0.7124055147 
0.7139958785 
0.6655819047 
0.6563709356 
0.628262963 
0.5489847162 
0.4961080501 
0.4487537539 
0.391407567 
0.3424237778 
0.752354757 
0.7150305556 
0.6993182759 
0.6779515916 
0.6478476383 
0.6041240912 
0.5443741125 
0.5044839158 
0.4524338519 
0.3967086331 
0.3307280773 
0.7611024299 
0.7107463883 
0.7202746523 
0.6665698911 
0.6308406163 
0.6187752863 
0.5593089557 
0.4964872533 
0.4484471415 
0.3903026945 
0.3278502448 
0.7787120569 
0.7277073795 
0.6644159239 
0.6843149624 
0.62665463 
0.6064489353 
0.5685753326 
0.4804333683 
0.4642551144 
0.3990143099 
0.3210975603 
0.7477163797 
0.7447719552 
0.7057031263 
0.6360408282 
0.6707912983 
0.5949795422 
0.5825241251 
0.5036608739 
0.4610345008 
0.3966701605 
0.3424082879 
0.686909177 
0.7179149873 
0.7086422345 
0.6811950369 
0.6288247282 
0.598996729 
0.5598410958 
0.5214798981 
0.4336659383 
0.3761699331 
0.3105200982 
0.0002165418965 
0.0303823159 
0.01781342992 
0.01040089672 
0.003672613251 
0.004556986547 
0.002668283593 
0.0008215593152 
0.002923364874 
0.001584759766 
0.001070161163 
0.0006076900218 
0.0004829717849 
0.0001295309495 
0.0001980859931 
0.005114898943 
0.0002085774096 
0.0002866418718 
0.004358469862 
0.0001418799567 
0.001840765958 
0.001041704256 
0.0006346406785 
0.001400204798 
0.003856333773 
0.005630060553 
0.009122030088 
0.01427319873 
0.02778849567 
0.03097696565 
0.01168055681 
0.004711292013 
0.003870513479 
0.003334139877 
0.004103853483 
0.0006095115238 
0.00139848237 
0.0003024485723 
0.0003475106163 
0.0002556859826 
0.02059447747 
0.0121460017 
0.01002336949 
0.006934596819 
0.003604336428 
0.0006632649978 
0.002313047118 
0.0008201997851 
8.612206723e-06 
0.0001461006717 
0.0006412385099 
0.02500426721 
0.01707509004 
0.01167987152 
0.003423274535 
0.003155769736 
0.002538065637 
0.001957478396 
0.0005508522964 
0.000987927554 
0 
0.0003528642677 
0.02583702536 
0.01613771895 
0.009661511138 
0.004107233415 
0.002700256117 
0.0007605879742 
0.00226575713 
0.001878538271 
0.0015349987 
9.215546051e-05 
0.001061879073 
0.02552083173 
0.01338451466 
0.007462841596 
0.005977787534 
0.002461625105 
0.00182003303 
0.003882613145 
0.0006075216756 
0.0002594967107 
0.0006137555532 
0.0007603188163 
0.0002216049155 
0.0003665587865 
0.001167033624 
4.259736876e-05 
0.0008236967046 
0.004735339023 
0.0004230696035 
0.005520437752 
0.007161958608 
0.01886327731 
0.01412509361 
0.02887663066 
8.379162344e-05 
1.159966115e-05 
0.0007690212269 
0.0002367957867 
0.002384857648 
0.02500790811 
0.01344324335 
0.008387062141 
0.004008434866 
0.001205331934 
0.004955341765 
0.0006651746236 
0.001530295494 
0.0001968870055 
0.0003059656099 
0.0008894256295 
0.02848183773 
0.01149040778 
0.00895336873 
0.004122688668 
0.003327061872 
0.001923164278 
0.002769509184 
0.002398851024 
0.0002340968403 
9.153194078e-05 
0 
0.02326566221 
0.01251130276 
0.007834209617 
0.004099412476 
0.003958283288 
0.000929744267 
0.0006910002937 
0.0007972459111 
0.0002609483913 
0.0001047845939 
0 
0.02826098007 
0.01389509139 
0.01522541791 
0.005061283648 
0.004645049563 
0.003224607564 
0.001736916401 
0.002042387364 
0.0009321767201 
0.001924717709 
0.0004808593061 
0.02592857401 
0.01548902248 
0.01347513475 
0.003819832957 
0.003692320255 
0.001173454281 
0.002782609777 
0.0002887021555 
0.00070451047 
0.0001040525187 
0.0004098640068 
0.004285928341 
0.001534407927 
0.0003662244687 
0.0007658029733 
0.0008614749192 
0.0003142180686 
7.778679248e-05 
0.0003973259181 
7.229440918e-05 
0.0004635075668 
0.0001926666182 
0.0002711121328 
0.0006270120065 
6.116057025e-05 
0.0005908337112 
2.970963748e-05 
4.577254756e-05 
0.001991991069 
0.000101396186 
0 
0.0001272439046 
7.902893525e-06 
0.0006308643018 
0.0009696770264 
3.651683132e-05 
0.002480156817 
0 
0.000197928973 
0.001259777613 
0.0002186762436 
0.0001751974045 
0.0004129624928 
0 
6.493055981e-05 
0.0006783763556 
0 
0.02156233193 
0.01855494758 
0.01013962569 
0.009116520195 
0.004293146973 
0.001801866363 
0.002850378736 
0.0004357874648 
0.001382455763 
0.0009226797543 
0.001940396635 
0.02656746802 
0.01886619414 
0.01276553562 
0.007830988779 
0.002192184805 
0.004186758344 
0.001114740857 
0.003235535282 
0.0009945274138 
0.000236101323 
0.0001450797533 
0.02230145785 
0.01239318309 
0.009560624501 
0.006795363985 
0.006641287812 
0.0003491164112 
0.001092400935 
0.001091259944 
0.001192040192 
0.001053826892 
0.0003577542413 
0.02093189035 
0.01371159363 
0.006959289547 
0.005395229086 
0.003674321742 
0.002171449873 
0.00185630852 
0.002246809132 
0.002959175581 
0.0007436534068 
0.001924388822 
0.02902537449 
0.01299697264 
0.008091314997 
0.01216056444 
0.003490867054 
0.001828701282 
0.001553467958 
0.002135184852 
0.002359508792 
0.0001424773886 
0.002070529967 
0.03035088925 
0.0158086072 
0.007713464958 
0.004441384611 
0.004491996821 
0.007678512353 
0.002382520897 
0.000496357331 
0.000410107679 
0.0004031869008 
0.001600385666 
0.03288481932 
0.01630052921 
0.006663026431 
0.004513472102 
0.005268074365 
0.00133729153 
0.002933225405 
0.001069051023 
0.0001617103866 
7.154043467e-05 
0.000963302989 
0.03023658616 
0.01412256587 
0.01110886804 
0.008736935206 
0.008744816666 
0.003200363121 
0.002183513647 
0.001019129863 
0.0004864480204 
0.0009716544878 
0.001099169586 
0.0224106896 
0.01267396633 
0.008246733042 
0.00269611127 
0.004750241435 
0.003241989829 
0.00541812432 
0.003021420391 
0.0005450525223 
0.0009319821087 
0.0002259512005 
0.02902065648 
0.01384619309 
0.008138574043 
0.01204284794 
0.003297979583 
0.001663796583 
0.002812195691 
0.002766500029 
0.0006490759386 
0.001541746357 
0.003639392196 
0.02481075994 
0.01693469892 
0.006966889759 
0.00473443869 
0.003434795652 
0.001363154402 
0.0008579909668 
0.0019343708 
0.002758779397 
0.0006264062617 
0.0001940634172 
0.02702339713 
0.02268476699 
0.00818851655 
0.006922132486 
0.003465745657 
0.001986304027 
0.001505521044 
0.0003098289574 
0.002100649057 
0.001062382065 
0.002360131402 
0.03159323067 
0.01637838999 
0.01041372776 
0.003843698795 
0.004588960233 
0.004924563576 
0.001347683274 
0.00384853499 
3.568230456e-06 
0.000556382475 
0.001972704307 
0.02823298583 
0.009873954664 
0.006456019625 
0.009803762105 
0.003191406894 
0.004126589489 
0.004378805941 
0.0008196115573 
0.0002353925998 
0.001243428566 
0.0005502823804 
0.02965782581 
0.01540396726 
0.007200015006 
0.004185468232 
0.005140336882 
0.005821396769 
0.001079228315 
0.0002793186742 
0.00147152379 
0.0005915172336 
0.001505663821 
0.02555495954 
0.01329197237 
0.005885362567 
0.002439753006 
0.005373164807 
0.001105604309 
0.003029462592 
0.002090571436 
0.0002745215029 
0.0006616956653 
0.0003180299187 
0.03143528195 
0.01591893277 
0.009132064995 
0.005262628572 
0.00334457756 
0.00203739463 
0.002391592373 
0.0005080859966 
0.001207278971 
0.001933286348 
9.199723529e-05 
0.03161766639 
0.0147181255 
0.005763510572 
0.005459702968 
0.001817947987 
0.001227404547 
0.001683675557 
0.001742683661 
0.001411689071 
0.001456873456 
0.003991626869 
0.02461995721 
0.009277937283 
0.01422596746 
0.00362117927 
0.002783883574 
0.003006635695 
0.000385572969 
0.0002586966617 
0.0005232837043 
0.0005933855202 
0.0003162218046 
0.02991544035 
0.01271263264 
0.006867615198 
0.0052178716 
0.005568349712 
0.003881115339 
0.004456478999 
0.001645507859 
0.001815447624 
0.0004425288783 
0.0004977537136 
0.02259262539 
0.01005729252 
0.003360109727 
0.005318886051 
0.00265575493 
0.002446353814 
0.001254109675 
0.002085806261 
0.0005787223095 
0.00112118558 
0.001266824149 
0.02967992691 
0.01960405197 
0.01353973685 
0.01100186479 
0.002559031672 
0.001945153177 
0.0004178616065 
0.001148330073 
0.001154250441 
0.001152158636 
0.000163753234 
0.03693606691 
0.01673907801 
0.007434209842 
0.00591801316 
0.0009482375058 
0.002674167527 
0.002923383279 
0.003374508729 
0.0026159194 
0.0009498225673 
0.0003860630906 
0.02031620977 
0.02014974722 
0.005907078939 
0.009786023476 
0.004806995376 
0.0016447359 
0.001939202937 
0.002019168285 
0.002635386983 
0.0007244069687 
0.0007081525955 
0.02582467322 
0.01075548967 
0.01266475124 
0.004345792213 
0.007915853067 
0.00154363907 
0.001495230076 
0.0001563152567 
0.00195174647 
0.001591358375 
0.001688028684 
0.02679804774 
0.01244374744 
0.008641334831 
0.00593929857 
0.007212904377 
0.0007806774139 
0.0006566038144 
0.0006750104005 
0.002686446676 
0.003022873526 
0.0008090438272 
0.03263623089 
0.01276304574 
0.007680462141 
0.005392559498 
0.002334174399 
0.000509796249 
0.005481744597 
0.0007198755126 
0.000207935093 
0.001787874794 
0.0003497647914 
0.02688445021 
0.01094277768 
0.008940261781 
0.007388641427 
0.0005236869117 
0.002870914786 
0.0006737835989 
0.001072936099 
0.000150736517 
7.19131908e-05 
0.0005922679548 
0.02369058352 
0.01955832408 
0.005263773986 
0.008438550527 
0.00343750126 
0.002018241332 
0.001615911133 
0.001518838294 
0.00212702867 
0.001463120834 
0.002282231743 
0.0216655061 
0.01374923607 
0.01048592597 
0.01080002263 
0.005367604375 
0.003994367946 
0.001088388436 
0.001134169413 
8.380043e-05 
0.001187599563 
0 
0.02644309853 
0.0121209842 
0.008785391498 
0.005653659978 
0.003098827862 
0.003552445282 
0.0003041252072 
0.001256573763 
1.667065537e-05 
0.0005837037417 
0.001178276713 
0.01924198203 
0.0111804612 
0.006494865865 
0.003351514638 
0.002545294055 
0.001564953974 
0.005632395077 
0.0005304857879 
0.003692446317 
0.0002824520227 
3.442941711e-06 
0.02466442561 
0.01349942832 
0.007941281342 
0.003117514272 
0.003127715788 
0.004655279686 
0.001272721377 
0.002161736066 
0.0007458921612 
0.0006177257628 
0.0001130230152 
0.02800319347 
0.01452325574 
0.01050940959 
0.0049917246 
0.003069488087 
0.005281182991 
0.0007138697489 
0.001000162348 
0.002939244773 
0 
0 
0.02630270071 
0.01860772631 
0.00898316718 
0.004857488222 
0.003216385642 
0.002229434142 
0.003512283355 
0.002072164298 
0.0004476852977 
0.00021009248 
7.641192364e-05 
0.02323404926 
0.01236911746 
0.01001232307 
0.002324376272 
0.004005246562 
0.001934046049 
0.001421612153 
0.000154168458 
8.193856679e-06 
0.0005087289162 
0.0002501853506 
SCALARS KDE_TALLY_TAG_0.01-2 double 1
LOOKUP_TABLE default
0.5553877044 
0.6065446222 
0.6572347213 
0.6500035125 
0.6810361935 
0.595195486 
0.6128859849 
0.6566166326 
0.5979501977 
0.591772773 
0.6468580717 
0.6153026988 
0.5940052551 
0.5794592267 
0.6014639354 
0.5628271094 
0.5543066409 
0.6426016206 
0.5953821945 
0.6482137106 
0.5899878054 
0.6021000712 
0.6391652746 
0.6230634613 
0.6229892785 
0.6062240079 
0.6475494856 
0.6334399594 
0.6333095278 
0.6468926022 
0.5748035283 
0.6202406079 
0.5624247411 
0.5803050207 
0.620342558 
0.5738471231 
0.6223352673 
0.61157776 
0.5560523654 
0.6575177159 
0.5765516513 
0.5811841638 
0.5989441202 
0.6270344115 
0.5774915779 
0.60176962 
0.6307650159 
0.5973234553 
0.6357660604 
0.4460908957 
0.588511372 
0.6054822002 
0.6121916839 
0.6089818557 
0.5786624185 
0.5006182428 
0.5636580651 
0.5267727974 
0.4683909362 
0.4770868167 
0.4383688734 
0.4515119518 
0.4631414142 
0.4326539238 
0.4299012626 
0.4649917661 
0.4557050292 
0.4416145621 
0.4843089697 
0.490082048 
0.5446704082 
0.5568580239 
0.5490676641 
0.5329172738 
0.570383453 
0.5790501356 
0.5742398601 
0.5865314774 
0.5919304633 
0.5913298105 
0.572078873 
0.5850328682 
0.5407245732 
0.5344931911 
0.4715962045 
0.5199707338 
0.4599052752 
0.4728328947 
0.4244926836 
0.5941914493 
0.6292828529 
0.5594232396 
0.5497458279 
0.5360309266 
0.5284301898 
0.5095384089 
0.4964405346 
0.5066932269 
0.4596827696 
0.472438695 
0.5748103402 
0.5610052696 
0.542945975 
0.5610201092 
0.5272821586 
0.5536922366 
0.480928758 
0.4559997882 
0.4943087209 
0.4763356409 
0.4510074952 
0.5841861696 
0.5827835343 
0.6020125628 
0.5278547244 
0.5198020781 
0.5146045401 
0.5169858964 
0.5098867969 
0.4752253575 
0.4968386593 
0.4383214618 
0.6435312146 
0.5915499075 
0.5540987561 
0.5572904248 
0.5508979162 