# vtk DataFile Version 3.0
MOAB 4.8.3pre
ASCII
DATASET UNSTRUCTURED_GRID
POINTS 15725 double
-0.441866696 -1.43915224 -60.9600182
-0.441866696 -0.239152238 -60.9600182
-0.441866696 -0.239152238 60.9599991
-0.441866696 -1.43915224 60.9599991
-0.840952218 -0.152589679 -60.9600182
-0.840952218 1.04741037 -60.9600182
-0.840952218 1.04741037 60.9599991
-0.840952218 -0.152589679 60.9599991
0.445610315 0.246495873 -60.9600182
0.445610315 1.44649589 -60.9600182
0.445610315 1.44649589 60.9599991
0.445610315 0.246495873 60.9599991
0.00187181414 1.90867186 60.9599991
0.00187181414 1.90867186 -60.9600182
0.00187181414 -1.90132821 -60.9600182
0.00187181414 -1.90132821 60.9599991
0.856077969 0.182259783 60.9599991
0.856077969 -1.01774025 60.9599991
0.856077969 0.182259783 -60.9600182
0.856077969 -1.01774025 -60.9600182
-0.866130769 -1.26341629 -60.9600182
-1.04186666 -0.839152217 -60.9600182
-0.866130769 -0.414888173 -60.9600182
-0.441866696 -0.239152238 -60.4742813
-0.441866696 -0.239152238 -59.9885445
-0.441866696 -0.239152238 -59.5028076
-0.441866696 -0.239152238 -59.0170708
-0.441866696 -0.239152238 -58.5313339
-0.441866696 -0.239152238 -58.0455971
-0.441866696 -0.239152238 -57.5598602
-0.441866696 -0.239152238 -57.0741234
-0.441866696 -0.239152238 -56.5883865
-0.441866696 -0.239152238 -56.1026497
-0.441866696 -0.239152238 -55.6169128
-0.441866696 -0.239152238 -55.131176
-0.441866696 -0.239152238 -54.6454391
-0.441866696 -0.239152238 -54.1596985
-0.441866696 -0.239152238 -53.6739616
-0.441866696 -0.239152238 -53.1882248
-0.441866696 -0.239152238 -52.7024879
-0.441866696 -0.239152238 -52.2167511
-0.441866696 -0.239152238 -51.7310143
-0.441866696 -0.239152238 -51.2452774
-0.441866696 -0.239152238 -50.7595406
-0.441866696 -0.239152238 -50.2738037
-0.441866696 -0.239152238 -49.7880669
-0.441866696 -0.239152238 -49.30233
-0.441866696 -0.239152238 -48.8165932
-0.441866696 -0.239152238 -48.3308563
-0.441866696 -0.239152238 -47.8451157
-0.441866696 -0.239152238 -47.3593788
-0.441866696 -0.239152238 -46.873642
-0.441866696 -0.239152238 -46.3879051
-0.441866696 -0.239152238 -45.9021683
-0.441866696 -0.239152238 -45.4164314
-0.441866696 -0.239152238 -44.9306946
-0.441866696 -0.239152238 -44.4449577
-0.441866696 -0.239152238 -43.9592209
-0.441866696 -0.239152238 -43.473484
-0.441866696 -0.239152238 -42.9877472
-0.441866696 -0.239152238 -42.5020103
-0.441866696 -0.239152238 -42.0162735
-0.441866696 -0.239152238 -41.5305328
-0.441866696 -0.239152238 -41.044796
-0.441866696 -0.239152238 -40.5590591
-0.441866696 -0.239152238 -40.0733223
-0.441866696 -0.239152238 -39.5875854
-0.441866696 -0.239152238 -39.1018486
-0.441866696 -0.239152238 -38.6161118
-0.441866696 -0.239152238 -38.1303749
-0.441866696 -0.239152238 -37.6446381
-0.441866696 -0.239152238 -37.1589012
-0.441866696 -0.239152238 -36.6731644
-0.441866696 -0.239152238 -36.1874275
-0.441866696 -0.239152238 -35.7016907
-0.441866696 -0.239152238 -35.2159538
-0.441866696 -0.239152238 -34.7302132
-0.441866696 -0.239152238 -34.2444763
-0.441866696 -0.239152238 -33.7587395
-0.441866696 -0.239152238 -33.2730026
-0.441866696 -0.239152238 -32.7872658
-0.441866696 -0.239152238 -32.3015289
-0.441866696 -0.239152238 -31.8157921
-0.441866696 -0.239152238 -31.3300552
-0.441866696 -0.239152238 -30.8443184
-0.441866696 -0.239152238 -30.3585815
-0.441866696 -0.239152238 -29.8728428
-0.441866696 -0.239152238 -29.3871059
-0.441866696 -0.239152238 -28.9013691
-0.441866696 -0.239152238 -28.4156322
-0.441866696 -0.239152238 -27.9298954
-0.441866696 -0.239152238 -27.4441586
-0.441866696 -0.239152238 -26.9584198
-0.441866696 -0.239152238 -26.472683
-0.441866696 -0.239152238 -25.9869461
-0.441866696 -0.239152238 -25.5012093
-0.441866696 -0.239152238 -25.0154724
-0.441866696 -0.239152238 -24.5297356
-0.441866696 -0.239152238 -24.0439987
-0.441866696 -0.239152238 -23.55826
-0.441866696 -0.239152238 -23.0725231
-0.441866696 -0.239152238 -22.5867863
-0.441866696 -0.239152238 -22.1010494
-0.441866696 -0.239152238 -21.6153126
-0.441866696 -0.239152238 -21.1295757
-0.441866696 -0.239152238 -20.6438389
-0.441866696 -0.239152238 -20.1581001
-0.441866696 -0.239152238 -19.6723633
-0.441866696 -0.239152238 -19.1866264
-0.441866696 -0.239152238 -18.7008896
-0.441866696 -0.239152238 -18.2151527
-0.441866696 -0.239152238 -17.7294159
-0.441866696 -0.239152238 -17.2436771
-0.441866696 -0.239152238 -16.7579403
-0.441866696 -0.239152238 -16.2722034
-0.441866696 -0.239152238 -15.7864666
-0.441866696 -0.239152238 -15.3007298
-0.441866696 -0.239152238 -14.814992
-0.441866696 -0.239152238 -14.3292551
-0.441866696 -0.239152238 -13.8435183
-0.441866696 -0.239152238 -13.3577814
-0.441866696 -0.239152238 -12.8720436
-0.441866696 -0.239152238 -12.3863068
-0.441866696 -0.239152238 -11.9005699
-0.441866696 -0.239152238 -11.4148321
-0.441866696 -0.239152238 -10.9290953
-0.441866696 -0.239152238 -10.4433584
-0.441866696 -0.239152238 -9.95762062
-0.441866696 -0.239152238 -9.47188377
-0.441866696 -0.239152238 -8.98614693
-0.441866696 -0.239152238 -8.50041008
-0.441866696 -0.239152238 -8.01467228
-0.441866696 -0.239152238 -7.52893543
-0.441866696 -0.239152238 -7.04319811
-0.441866696 -0.239152238 -6.55746126
-0.441866696 -0.239152238 -6.07172394
-0.441866696 -0.239152238 -5.58598709
-0.441866696 -0.239152238 -5.10024977
-0.441866696 -0.239152238 -4.61451244
-0.441866696 -0.239152238 -4.1287756
-0.441866696 -0.239152238 -3.64303827
-0.441866696 -0.239152238 -3.15730119
-0.441866696 -0.239152238 -2.6715641
-0.441866696 -0.239152238 -2.18582702
-0.441866696 -0.239152238 -1.70008981
-0.441866696 -0.239152238 -1.21435273
-0.441866696 -0.239152238 -0.728615582
-0.441866696 -0.239152238 -0.242878437
-0.441866696 -0.239152238 0.242858693
-0.441866696 -0.239152238 0.728595853
-0.441866696 -0.239152238 1.21433294
-0.441866696 -0.239152238 1.70007014
-0.441866696 -0.239152238 2.18580723
-0.441866696 -0.239152238 2.67154431
-0.441866696 -0.239152238 3.1572814
-0.441866696 -0.239152238 3.64301872
-0.441866696 -0.239152238 4.12875557
-0.441866696 -0.239152238 4.61449289
-0.441866696 -0.239152238 5.10023022
-0.441866696 -0.239152238 5.58596706
-0.441866696 -0.239152238 6.07170439
-0.441866696 -0.239152238 6.55744123
-0.441866696 -0.239152238 7.04317856
-0.441866696 -0.239152238 7.52891588
-0.441866696 -0.239152238 8.01465321
-0.441866696 -0.239152238 8.50039005
-0.441866696 -0.239152238 8.9861269
-0.441866696 -0.239152238 9.47186375
-0.441866696 -0.239152238 9.95760155
-0.441866696 -0.239152238 10.4433384
-0.441866696 -0.239152238 10.9290752
-0.441866696 -0.239152238 11.414813
-0.441866696 -0.239152238 11.9005499
-0.441866696 -0.239152238 12.3862867
-0.441866696 -0.239152238 12.8720245
-0.441866696 -0.239152238 13.3577614
-0.441866696 -0.239152238 13.8434982
-0.441866696 -0.239152238 14.3292351
-0.441866696 -0.239152238 14.8149729
-0.441866696 -0.239152238 15.3007097
-0.441866696 -0.239152238 15.7864466
-0.441866696 -0.239152238 16.2721844
-0.441866696 -0.239152238 16.7579212
-0.441866696 -0.239152238 17.2436581
-0.441866696 -0.239152238 17.7293949
-0.441866696 -0.239152238 18.2151318
-0.441866696 -0.239152238 18.7008705
-0.441866696 -0.239152238 19.1866074
-0.441866696 -0.239152238 19.6723442
-0.441866696 -0.239152238 20.1580811
-0.441866696 -0.239152238 20.6438179
-0.441866696 -0.239152238 21.1295547
-0.441866696 -0.239152238 21.6152916
-0.441866696 -0.239152238 22.1010303
-0.441866696 -0.239152238 22.5867672
-0.441866696 -0.239152238 23.072504
-0.441866696 -0.239152238 23.5582409
-0.441866696 -0.239152238 24.0439777
-0.441866696 -0.239152238 24.5297146
-0.441866696 -0.239152238 25.0154533
-0.441866696 -0.239152238 25.5011902
-0.441866696 -0.239152238 25.986927
-0.441866696 -0.239152238 26.4726639
-0.441866696 -0.239152238 26.9584007
-0.441866696 -0.239152238 27.4441376
-0.441866696 -0.239152238 27.9298744
-0.441866696 -0.239152238 28.4156132
-0.441866696 -0.239152238 28.90135
-0.441866696 -0.239152238 29.3870869
-0.441866696 -0.239152238 29.8728237
-0.441866696 -0.239152238 30.3585606
-0.441866696 -0.239152238 30.8442974
-0.441866696 -0.239152238 31.3300343
-0.441866696 -0.239152238 31.815773
-0.441866696 -0.239152238 32.3015099
-0.441866696 -0.239152238 32.7872467
-0.441866696 -0.239152238 33.2729836
-0.441866696 -0.239152238 33.7587204
-0.441866696 -0.239152238 34.2444572
-0.441866696 -0.239152238 34.7301941
-0.441866696 -0.239152238 35.2159309
-0.441866696 -0.239152238 35.7016678
-0.441866696 -0.239152238 36.1874046
-0.441866696 -0.239152238 36.6731453
-0.441866696 -0.239152238 37.1588821
-0.441866696 -0.239152238 37.644619
-0.441866696 -0.239152238 38.1303558
-0.441866696 -0.239152238 38.6160927
-0.441866696 -0.239152238 39.1018295
-0.441866696 -0.239152238 39.5875664
-0.441866696 -0.239152238 40.0733032
-0.441866696 -0.239152238 40.5590401
-0.441866696 -0.239152238 41.0447769
-0.441866696 -0.239152238 41.5305138
-0.441866696 -0.239152238 42.0162506
-0.441866696 -0.239152238 42.5019875
-0.441866696 -0.239152238 42.9877281
-0.441866696 -0.239152238 43.473465
-0.441866696 -0.239152238 43.9592018
-0.441866696 -0.239152238 44.4449387
-0.441866696 -0.239152238 44.9306755
-0.441866696 -0.239152238 45.4164124
-0.441866696 -0.239152238 45.9021492
-0.441866696 -0.239152238 46.387886
-0.441866696 -0.239152238 46.8736229
-0.441866696 -0.239152238 47.3593597
-0.441866696 -0.239152238 47.8450966
-0.441866696 -0.239152238 48.3308334
-0.441866696 -0.239152238 48.8165703
-0.441866696 -0.239152238 49.3023109
-0.441866696 -0.239152238 49.7880478
-0.441866696 -0.239152238 50.2737846
-0.441866696 -0.239152238 50.7595215
-0.441866696 -0.239152238 51.2452583
-0.441866696 -0.239152238 51.7309952
-0.441866696 -0.239152238 52.216732
-0.441866696 -0.239152238 52.7024689
-0.441866696 -0.239152238 53.1882057
-0.441866696 -0.239152238 53.6739426
-0.441866696 -0.239152238 54.1596794
-0.441866696 -0.239152238 54.6454163
-0.441866696 -0.239152238 55.1311531
-0.441866696 -0.239152238 55.61689
-0.441866696 -0.239152238 56.1026306
-0.441866696 -0.239152238 56.5883675
[...]
CELL_DATA 58178
SCALARS TALLY_TAG double 1
LOOKUP_TABLE default
0.0002756724359 
0.0001906648074 
0.0001773998329 
0.0001557833019 
0.0004582973974 
0.0002340051536 
0.0001596346265 
0.000186575976 
0.0002767431364 
0.0002976820435 
0.0001326520426 
0.000193385178 
0.0002062221974 
0.0004756012343 
0.000310427571 
0.0002215437057 
0.0004364713223 
0.0004071907515 
0.0002842311876 
0.0002333725908 
0.0001217064587 
0.0001384183184 
0.0002944759144 
0.0002509935677 
0.0001392500788 
0.0002052671667 
0.0003051421304 
0.0002759975931 
0.0002834074597 
0.0002544265097 
0.0003066926684 
0.0001418273885 
0.0001690369448 
0.0001730973525 
0.0002324233653 
5.641272127e-05 
0.0001163834058 
0.0004332221493 
0.0003428735333 
0.0002455486658 
0.0001417201619 
0.0001624375635 
0.0002404440036 
0.0004667476656 
0.0002118657787 
0.0001770678498 
0.0001162849751 
0.000205487333 
0.0003120824086 
0.0002686193174 
0.0002200378283 
0.0001984046481 
0.0003253399501 
0.0003453803445 
0.0004357503012 
0.0004789405809 
0.0003355181881 
0.0002247109909 
0.0003359977098 
0.006626676309 
0.0003543041492 
0.0002012825832 
0.0003610843554 
0.0002351306043 
0.0003043480096 
0.0001947341001 
0.000182941747 
0.0002982201178 
0.0002674848294 
0.0002104631599 
0.000141697868 
0.0001129195119 
0.0001602238183 
0.0003143095869 
0.0002199768493 
0.0001244573144 
0.0001663183152 
0.0001503085901 
0.0001246299327 
0.000171362191 
0.0001988590056 
0.0001202048249 
0.0002648225037 
0.0002514183429 
0.0002702123191 
0.0002269426781 
0.0002213299192 
0.0003030950911 
0.0001976208641 
0.000136875488 
0.0001639601414 
0.0002214964882 
0.0003409587538 
0.0001944779203 
0.0002876643912 
0.0001801956187 
0.001034807334 
0.0005725160318 
0.0003139226141 
0.0001301852359 
0.0002440742588 
0.0001794508666 
0.0004299368941 
0.0001227241152 
0.0002289486293 
0.0003764947347 
0.0005706506815 
0.0001654864759 
0.0002413513422 
0.0002040904818 
0.0002052024078 
0.0003749433 
0.0002230183532 
0.0002385995028 
0.0001944298873 
0.0001189310193 
0.0003105289041 
0.0003052376409 
0.000218070484 
0.0003548265368 
0.0001877699141 
0.0002579841793 
0.0002322539363 
0.0003704034577 
0.0002701245524 
0.000211988025 
0.0003637015859 
0.0003165663541 
0.0001681302492 
0.0001742632382 
0.0001188621835 
0.0002616976985 
0.0003205858523 
0.0001537689499 
0.0002713987878 
0.0002510725669 
0.0002301479669 
0.0002397449181 
0.000161236836 
0.0003415539956 
0.000233654402 
0.0001763198744 
0.0001656645902 
0.0001756167017 
0.0001241183842 
0.0003240063559 
0.00033692935 
0.0001925894221 
0.0004748711214 
0.00111197935 
0.0002977206692 
0.0001710051667 
0.0002287316815 
0.0002578195259 
0.00020468368 
0.0003224396759 
0.0001483600415 
0.000272762235 
0.0002752439545 
0.000174031461 
0.0002051359043 
0.0002874277293 
0.0002060415438 
0.0005626797961 
0.000284309562 
0.0002344475239 
0.0003882625318 
0.0002976638069 
0.0005509485565 
0.0003322944046 
0.0003402370989 
0.0003111968977 
0.0002273013486 
0.0001701517419 
7.995906996e-05 
0.0002442351056 
0.0001680948371 
0.0001188975558 
0.0001143364391 
0.0001791882921 
0.000214215217 
0.0001667995747 
0.0002328879782 
0.0001104647348 
0.0001002570901 
0.001345366942 
0.0001985224256 
5.825401388e-05 
0.0003339543023 
0.0003013525025 
0.000157422095 
0.0002787513075 
0.0002000509304 
0.0001226734408 
0.0002184513169 
0.0004054809242 
0.0002891210579 
0.000209366608 
0.0002122279832 
0.000521408282 
0.0001226068007 
3.850575385e-05 
0.0002153273893 
0.00138725457 
0.0001119964843 
0.0002383396034 
7.582428849e-05 
0.0001795483093 
0.0002750801435 
0.00110107726 
0.0002078823264 
8.964241832e-05 
0.000240329469 
0.000235423613 
0.0001778321656 
0.0002533766391 
5.089524897e-05 
0.0001749074484 
0.001026858557 
0.0002073514686 
0.0002079317999 
0.0002128756569 
9.873621809e-05 
0.0002562884704 
0.0002600645638 
0.0001895933417 
0.0002011878499 
0.0002660658052 
0.0002274174199 
0.0001617840066 
0.0002360368948 
0.0003798391389 
0.0002356859241 
0.0002742546309 
0.0004560770641 
0.0003124393515 
0.0002103074164 
0.0002621607806 
0.0003123435943 
0.0003024495207 
0.0003052167427 
0.0004208335497 
0.0001944645333 
0.0002370899518 
0.0003349917045 
0.0002403121017 
0.0003545016518 
0.0005129311548 
0.003868950793 
0.003176702213 
0.002696302253 
0.001241766687 
0.0006900547913 
0.002916934734 
0.00300468996 
0.00166960429 
0.0003907441866 
0.0001016624036 
0.000275337379 
8.24164002e-05 
0.0003753630455 
0.0003327822642 
0.000249226327 
9.836240255e-05 
0.0001847806147 
0.0003310886795 
0.0001659398646 
0.0003631339131 
0.0002273810198 
0.000129790703 
0.0002419144932 
0.0001173567716 
0.0001849737319 
0.0001670820401 
0.001300541973 
0.0002722862817 
0.0001633789972 
0.0002912700147 
0.0002252455443 
0.0002933644458 
0.0003228709412 
0.0001070980739 
0.0003153468147 
0.000113405399 
0.0001572542074 
0.0003332773753 
0.0001618418888 
0.0001652315416 
0.0001838277265 
0.0001497212751 
0.0001811866542 
0.0002608191091 
0.0003495617863 
0.0001847367949 
0.0002438018468 
0.0002102559267 
0.0003400728053 
0.0001617770425 
0.0002133856082 
0.0001962677986 
7.25990463e-05 
0.0001217339201 
0.0002992550349 
0.0002399413937 
0.0002856555473 
0.0002047083334 
0.0002720173754 
0.0002397516036 
0.0001954027362 
0.0001111479849 
0.0002357517543 
0.0002533030873 
0.0002148495851 
0.0003087267521 
0.00030936774 
0.0002763190165 
0.0003789155905 
0.0002962562859 
0.0002221996195 
0.0001526884088 
0.0001848883306 
0.0002008990438 
0.0001398945896 
0.0001590859801 
0.0002531558974 
0.0003431660908 
0.0001707370317 
0.0005269022936 
0.0001346521316 
0.001415143672 
0.0002630064405 
0.0002399268655 
0.00029654151 
0.000108097267 
0.0002489642633 
0.0002107359112 
0.0002097627721 
0.0001623119597 
0.0001907804049 
0.0002217674764 
0.0002182052585 
0.0001664886335 
0.0005641808665 
0.0002102464741 
0.0002245673327 
0.0002116040098 
0.0003511320569 
0.0001899578383 
0.0001332373092 
0.000246500557 
0.0002801375759 
0.0002697192239 
0.0001458842426 
0.0003295284387 
0.001450765575 
0.0001869226199 
0.0002608277269 
0.0001974231457 
0.0003926435028 
0.000221851387 
0.0002166177266 
0.0003412209423 
0.001079818808 
0.0001953245297 
0.0002426768308 
0.0002593525475 
0.0004525913328 
0.0002222651616 
0.0003379358957 
0.0001954361556 
0.0002858701456 
0.0001685733698 
0.001111540331 
0.0002755663802 
0.0002143914605 
0.0002094197641 
0.001427810986 
0.0003195606962 
0.0002388033396 
0.0003945345319 
0.0001281655544 
0.0005167469108 
0.0002175440942 
0.0006894960233 
0.000236009914 
0.0002213518216 
0.000180134423 
0.000329785945 
0.0002874202362 
0.0002195970827 
0.0001393731113 
0.0002337156119 
0.0002441402558 
0.0001566784352 
0.0001471047468 
0.0002621409077 
0.0002455876396 
0.006794021205 
0.003539172079 
0.002757774859 
0.0001352513444 
0.0006453821106 
0.002509868698 
0.0002651895271 
0.001109363014 
0.0001273010167 
0.000208382114 
0.0002114070138 
0.0002626087775 
0.0001507774825 
0.0003599333602 
0.0004232176547 
0.0002539268885 
0.0003224753839 
0.0002800132384 
0.0002197154495 
0.0001866244117 
9.729208635e-05 
0.000144522996 
0.0002642276571 
0.0001616486171 
0.0002007202732 
0.0002100843802 
0.0001770927044 
0.0002364724576 
0.0001729137361 
0.0001575231261 
0.0001850673554 
0.000121725257 
0.0001582154427 
0.0003969069362 
0.0002879027716 
0.0003192298305 
0.0002215706794 
0.0002453516586 
0.0002094494243 
0.0002492065732 
0.0002164399206 
0.0002461532214 
0.0003304101789 
0.0001386671076 
9.406306862e-05 
0.0002827073333 
0.0002717893032 
0.0001583494527 
0.0001594915628 
0.0001576523084 
0.0004717234513 
0.0003277992748 
9.69053455e-05 
0.0001052580132 
0.000379851846 
0.0001239504291 
0.0001305269774 
0.0003433401006 
0.0001775426127 
0.0003897538567 
0.0002732352325 
0.0001486678611 
0.0007678468282 
0.0001920119447 
0.0002529474947 
0.0002971835354 
0.0001998612527 
0.0002470693823 
0.0002288218694 
0.0001237204358 
0.0003074034158 
0.0002700529708 
0.0002194034628 
0.0002631841816 
0.0001818824463 
0.0002761643319 
0.0004365389214 
0.000229315793 
0.0002380154612 
0.0002555331559 
0.0002380732595 
0.0001025496788 
0.0001635113872 
0.0001837882239 
0.0002449114153 
0.0001848209861 
0.0002327647964 
0.0001912370733 
0.0002275635075 
0.0002691503406 
0.0001761142434 
0.0002673140845 
0.0002106798129 
0.0005232948771 
0.0002751716742 
0.0002124081433 
0.000167393399 
0.0003437413943 
0.0004388491177 
0.000329340393 
0.0001653903699 
0.0001688176864 
0.0001555056487 
0.0001879431036 
0.0002312956109 
0.0002179640757 
0.0002970492259 
0.0001932195332 
0.0002898024363 
0.0001353556658 
0.0001459685087 
0.000172359221 
0.0002752644731 
9.259230026e-05 
0.0003797353633 
0.0002227011135 
0.0001045330841 
0.0003353382975 
0.0001572003854 
0.0002842331196 
0.000376592433 
0.0002008219242 
0.0002036858649 
0.0002348329148 
0.0004752369921 
0.0007763313912 
0.0002071756699 
0.0005050594217 
8.355125353e-05 
0.0001455147709 
0.0002307188654 
0.0008034636288 
8.833159723e-05 
0.0002640163868 
0.0001362518113 
0.0001932430658 
0.000184401669 
0.0002244503027 
0.0001873878666 
0.0001598218476 
0.0001749816203 
0.0002555871828 
0.0003789893995 
0.0002986481953 
0.0002804183714 
0.0002554261394 
0.0003173999102 
0.0002374599866 
0.0002434972663 
0.0002334453512 
0.0001292162155 
0.0001563302841 
0.0002078627047 
0.0002191253671 
0.0004066099522 
0.0002655484818 
0.0001467343937 
0.000249771801 
0.0002100335553 
0.0003623212672 
0.0001289528886 
0.0001274821041 
0.0003635326541 
0.0001256710774 
0.0003884156859 
0.0003011674257 
0.0002880787514 
0.0001231827148 
0.0002415021894 
0.0002042968719 
0.0003041727783 
0.000261671146 
0.0002165082368 
0.0001812739555 
0.0002146600666 
0.00017496287 
0.0002077037337 
0.0001261066482 
0.0004851393855 
0.0001526833456 
0.0001918398277 
0.0001524432122 
0.0001481452952 
0.0002496293421 
0.0001917570119 
0.0001182456195 
0.0002384596528 
0.0003070878787 
0.0003745320301 
8.059533946e-05 
0.000370578653 
0.0001258839906 
0.0001294383785 
0.0001269917922 
8.784189464e-05 
0.0003048856543 
0.0001772079373 
0.0001861433284 
0.0001954479261 
0.0001640841804 
0.0002405787355 
0.000165846209 
7.67527772e-05 
0.0002657486219 
0.0004895514396 
0.0003211839248 
0.0001907366713 
0.0002233892119 
0.0002878099866 
0.00024645003 
0.0002419823178 
0.0002255661937 
0.0001728732631 
0.0001880261108 
0.0003035606799 
0.0002216273405 
0.0003019231008 
0.0001318898673 
0.0001353928834 
0.0002974180162 
0.000321486278 
0.0002063511242 
0.0001375703748 
0.0002069027261 
0.0003702553397 
0.0001716625334 
0.0001366392548 
0.0001158293315 
0.0002979683803 
0.0002925935957 
0.0003189520966 
0.0004372638636 
0.0001621791575 
0.0002289972872 
0.0001716895889 
0.0003128193084 
5.105462265e-05 
0.0002593342347 
0.0001183093161 
5.823144754e-05 
6.883732343e-05 
0.0002144871014 
0.0001323902088 
0.000287972932 
0.0001499482945 
0.0001187985282 
0.0001186300042 
0.000250674799 
6.190889677e-05 
0.0003707700494 
0.0002110740338 
0.001142402056 
0.0001361550963 
0.000352655782 
0.0002511579628 
0.0002656599042 
0.0001641481767 
0.0002686243188 
0.0001579322119 
0.0002567049458 
0.0001940994969 
0.000159423243 
0.000468768968 
0.0004908659527 
0.0002200424064 
0.0003020773223 
0.0002148401293 
0.0004375812287 
0.0002187217703 
0.001035339252 
0.0003654562219 
0.0003835625191 
0.0001354354992 
0.0002487101638 
0.0002892796848 
0.0002569141292 
0.0001302546436 
0.0003096890608 
0.0002661150357 
0.0001965368927 
0.0002854025337 
0.0001720957297 
0.0003806316572 
0.0001224883971 
0.0003615029764 
0.0003079076443 
0.0002910958457 
0.0001449114642 
7.38371455e-05 
0.000220095431 
0.0001341845377 
0.0001556762211 
0.00109529565 
0.0002524351383 
0.0002213033597 
0.0002343300232 
0.0003317852465 
0.0002002449825 
0.0003376246298 
0.000126618525 
0.0002567587471 
0.0003816871279 
0.0002435465288 
0.0001649111742 
0.0002885224281 
0.0002912275424 
0.0001316297009 
0.0003464405676 
0.0004605547967 
0.0003463707069 
0.0001925736179 
0.0005222997671 
0.0001012498568 
0.0004651441645 
0.0002655820946 
0.0003212354857 
0.0002334097201 
0.0004703934672 
0.0002999170169 
0.0003511004599 
0.0001429973417 
0.0003628604125 
0.0003976619245 
0.0002221516513 
0.0002134084236 
0.0002000762902 
0.0002785938745 
0.0002125929231 
0.0004364438852 
0.0002640054331 
0.0002876059889 
0.0003432066217 
0.0002419093498 
0.0002855990301 
9.098753945e-05 
0.0003085529789 
0.000349892447 
9.262615479e-05 
0.0001576031827 
0.0002415538369 
0.0001638441185 
0.0001010734685 
0.0002668544561 
0.0001363762188 
0.0003108254464 
0.0002464558157 
0.0003862859878 
0.0003031238861 
0.0003597305128 
0.0004579192215 
0.0001711466508 
0.0002085059912 
0.0001708837 
0.0001732484501 
0.0002632492583 
0.0001344156019 
0.0002156708978 
0.0001805322149 
0.0002242408301 
0.0003350344466 
0.0002250826804 
0.0003879627796 
0.0005324510919 
0.0001647343348 
0.0002165412761 
0.001779866136 
0.0001972355909 
0.000382735969 
0.0003328396103 
0.001378985216 
8.144384956e-05 
0.000160228855 
9.961316444e-05 
0.000119357616 
0.004340426581 
0.0002264958096 
0.0003565081949 
0.0001251869842 
0.0002735146193 
0.0002803894911 
0.0002857520126 
0.0002633903162 
0.0003507490716 
0.0002490661557 
0.0008315737278 
0.003114507259 
0.002863817059 
0.005433339225 
0.0009770186858 
0.001083933878 
0.003256125119 
0.0002397136336 
0.0001569312172 
0.0002653301014 
0.0002704548829 
0.0004042889311 
0.0002127162554 
0.0003396713652 
0.0003736455829 
0.0003276113283 
0.001066345151 
0.0001840384949 
0.0004281641535 
0.0004003257737 
0.0002163694931 
0.0002637333446 
0.0001914595695 
0.0001930645763 
0.0002577563752 
0.0002854912591 
0.0003156892786 
7.78944629e-05 
0.0002649625063 
0.0002238369169 
0.0001663699767 
0.0001563239573 
0.0002293483595 
0.002695480279 
0.004217110683 
0.00404328592 
0.002506910532 
0.002715648308 
0.001903737886 
0.001363757369 
0.0001652959529 
0.0002616416963 
0.0003137100531 
0.0002470078601 
0.0002089377258 
0.0004094548297 
0.0001323226549 
0.0002442525981 
0.0003304849084 
0.0002379988913 
0.0002331659883 
0.0001608808388 
0.0003736127864 
0.000224386758 
0.0002389760024 
0.000297244403 
0.0002945602399 
0.0001725043467 
0.0001091891581 
0.0001279056664 
0.0003394341509 
0.0003083309393 
0.0002152547 
0.0001408353388 
0.0003044456516 
0.0003206971426 
0.001456884656 
0.0002201898531 
0.000264500198 
0.0002111231291 
0.0001825221176 
0.0001735313785 
0.0002861435929 
0.000466938991 
0.0003663878839 
0.0001707667708 
0.0002058354363 
0.0003340890558 
0.0002105867012 
0.000228616848 
0.0003374388441 
0.0004948663622 
0.0002537500492 
0.000192794694 
0.0001502286217 
0.0002478452829 
0.0003399256466 
0.0003265556915 
0.001541138536 
0.002328954794 
0.001700855382 
0.003221238428 
0.001852898286 
0.001123624996 
0.0002260382476 
0.001887401626 
0.002234768437 
0.0001612617403 
0.000215098492 
0.0001417156148 
0.0002470747225 
0.0001787823196 
0.0004960924344 
0.0003557308231 
0.0001520963989 
0.0001756737128 
0.0001947867634 
0.000432862175 
0.0002056948705 
0.0001884165691 
0.0001513533333 
0.0002347322027 
0.0004067308818 
0.001032346544 
0.0003070824161 
0.0004727527454 
0.0003680597457 
0.0002414019716 
0.0002824640224 
0.0002224401419 
0.0001121501488 
0.0001675583556 
0.0001893789526 
0.0002110812101 
0.0002324605388 
0.0001953573227 
0.0003535239318 
0.0002472528317 
0.0002287831654 
0.0002935524258 
0.0003193188221 
0.0002131546089 
0.0003569415148 
0.0001740396215 
0.0001576266093 
0.0001284990478 
0.0003097288695 
0.0002556481111 
0.0002298432752 
0.0001030504314 
0.0001993281314 
0.0002623050787 
0.0003692621295 
0.0002349265022 
0.0002306904003 
0.0001607856432 
0.0002942814149 
0.0002292077485 
0.0001557779577 
0.001486641274 
0.0002067383409 
0.0001903699372 
0.0001218740794 
0.0003838975474 
0.0002017724118 
0.0002759120971 
0.0002810355336 
0.0002378135622 
0.0001526696781 
0.0002524240202 
0.000380238123 
0.0002047027165 
0.0002070794647 
0.0002867530524 
0.0003227000875 
0.0001828482273 
0.0002200155565 
0.0001774051929 
0.0002377326769 
0.001648815514 
0.003899881346 
0.003010812729 
0.001525108067 
0.002400570362 
0.003377690911 
0.002454441028 
0.0002866595684 
0.0003770990488 
0.0001375508248 
0.0001469776229 
0.0001990582854 
0.0001311978222 
0.0001803501112 
0.0002856180387 
0.000192519436 
6.274399089e-05 
0.0001326021753 
0.000219721603 
0.0004003469274 
0.0001477735076 
0.0001665294143 
8.749196851e-05 
0.0002252868702 
9.28460821e-05 
0.0001232556318 
0.0003417816694 
0.0001758948898 
0.0002108149136 
0.0001449143848 
0.0002513241234 
0.0003316045249 
0.0001611071174 
0.0001751966424 
0.0002290672032 
0.0002291372712 
0.0001544367151 
0.000142174883 
0.0002978133307 
0.0002685219522 
0.0001884698649 
0.0003092085418 
0.0002890503325 
7.072973089e-05 
0.0008841543356 
0.0002346866502 
0.0003225237826 
0.0002183792965 
0.0001402457104 
6.112244191e-05 
0.0001942784524 
0.0002573537304 
0.0002570196532 
0.0001648649757 
0.0002598056454 
0.0002868877336 
0.0001640383 
0.0003421733489 
0.0002951233107 
0.0001376675528 
0.0001316617849 
0.0002461826475 
6.084499824e-05 
0.0003446919019 
0.0001052586698 
0.0002050485807 
0.000186707861 
0.0001343583599 
0.000136815 
0.0002001859652 
0.0001325686796 
0.0002371625112 
0.0003072163439 
0.0002152864432 
0.0002711111204 
0.0002522586062 
0.000142038785 
0.0005469635441 
0.0002547225422 
0.000294621455 
0.000288987222 
0.0002526587767 
0.0002026514463 
0.0004162997253 
0.000406726014 
5.324548807e-05 
0.0002290422718 
0.0001282171974 
0.0003589411242 
0.0001930944979 
0.0001595823276 
0.0002361129781 
0.0002115695343 
0.0002914288696 
0.0004259515414 
0.0002893757892 
0.0001938070232 
0.0002205309568 
0.000223155367 
0.0002373469138 
0.0001330949794 
0.0003720036075 
0.0001989846335 
0.0001002378289 
0.0002304993039 
0.000321416038 
0.0002737783383 
0.0001729494404 
9.527554113e-05 
0.0001600097147 
0.0002293732549 
0.0002054177777 
0.0002771235353 
0.0001417626612 
0.0002852328166 
0.0001362849198 
0.0002070623052 
0.0003593741145 
0.00380834326 
0.003273281761 
0.002521738271 
0.004382849452 
0.00207425915 
0.0008560513448 
0.001110825919 
0.0002008949387 
0.0002291835368 
5.751601675e-05 
0.0001598429452 
0.0003102906046 
0.0001075851965 
0.0001004080949 
0.0003515040382 
0.0002782251611 
0.0002225134575 
0.000194916999 
0.0001991058902 
0.0001667656556 
0.0003625754773 
0.000275489766 
0.0001596437141 
0.0002699787372 
0.0002054095895 
0.0002364889203 
3.190602321e-05 
0.0003020821935 
0.0002950035269 
0.0001089474568 
0.0003727670737 
0.0001980465217 
0.000243044906 
0.0002740341826 
0.0001047040074 
0.0001266334797 
0.0006523714295 
0.0002391948333 
0.0001905280464 
0.0002399567843 
0.0002918436245 
0.0002477867907 
0.0004459331701 
0.001272208804 
0.00337704777 
0.001571286096 
0.003017726576 
0.002664412628 
0.002391023945 
0.0002817337025 
0.0001850389209 
0.0002115653196 
0.0004955970592 
9.845530479e-05 
0.0001950553062 
0.0001513125666 
0.0002679654285 
0.0002311885482 
0.0002580609305 
0.000123367308 
0.0002490051031 
0.000212479449 
0.0001823639405 
0.0005197889076 
0.0003407729102 
0.0001797101073 
0.0003425719166 
0.0003580452824 
0.0002941959023 
0.0001222260114 
0.0002422817835 
0.0001307582231 
0.0001989059573 
0.000132464439 
0.0001982086312 
0.0002015372546 
0.0002454067491 
0.0001736542368 
0.0002459184607 
0.0001130195513 
0.0001679908595 
0.000159805895 
0.0004754983601 
0.0006135558687 
0.000322164394 
0.0003787047616 
0.0001759064068 
0.0001433066476 
0.0002467397028 
0.0002668962431 
0.0001162213826 
0.0001040598901 
6.017522388e-05 
0.0002035959408 
0.000178951507 
0.0001694160339 
0.0002514516822 
0.0002330218648 
0.0001555330177 
0.0001608268531 
7.916426096e-05 
0.0001759018101 
0.000316421315 
0.0004695561524 
0.0001824119488 
0.0001353935543 
0.0002449737696 
0.0004851503343 
0.0002812483802 
0.0001435085091 
0.0001371588979 
0.0002662399149 
0.0002658647478 
0.0001776163292 
0.0002248040633 
0.0002323670718 