# vtk DataFile Version 3.0
MOAB 4.8.3pre
ASCII
DATASET UNSTRUCTURED_GRID
POINTS 2811 double
-0.441866696 -1.43915224 -60.9600182
-0.441866696 -0.239152238 -60.9600182
-0.441866696 -1.43915224 60.9599991
-0.441866696 -0.239152238 60.9599991
-0.866130769 -1.26341629 -60.9600182
-1.04186666 -0.839152217 -60.9600182
-0.866130769 -0.414888173 -60.9600182
-0.0176026132 -0.414888173 -60.9600182
0.158133313 -0.839152217 -60.9600182
-0.0176026132 -1.26341629 -60.9600182
-0.441866696 -1.43915224 -60.4742813
-0.441866696 -1.43915224 -59.9885445
-0.441866696 -1.43915224 -59.5028076
-0.441866696 -1.43915224 -59.0170708
-0.441866696 -1.43915224 -58.5313339
-0.441866696 -1.43915224 -58.0455971
-0.441866696 -1.43915224 -57.5598602
-0.441866696 -1.43915224 -57.0741234
-0.441866696 -1.43915224 -56.5883865
-0.441866696 -1.43915224 -56.1026497
-0.441866696 -1.43915224 -55.6169128
-0.441866696 -1.43915224 -55.131176
-0.441866696 -1.43915224 -54.6454391
-0.441866696 -1.43915224 -54.1596985
-0.441866696 -1.43915224 -53.6739616
-0.441866696 -1.43915224 -53.1882248
-0.441866696 -1.43915224 -52.7024879
-0.441866696 -1.43915224 -52.2167511
-0.441866696 -1.43915224 -51.7310143
-0.441866696 -1.43915224 -51.2452774
-0.441866696 -1.43915224 -50.7595406
-0.441866696 -1.43915224 -50.2738037
-0.441866696 -1.43915224 -49.7880669
-0.441866696 -1.43915224 -49.30233
-0.441866696 -1.43915224 -48.8165932
-0.441866696 -1.43915224 -48.3308563
-0.441866696 -1.43915224 -47.8451157
-0.441866696 -1.43915224 -47.3593788
-0.441866696 -1.43915224 -46.873642
-0.441866696 -1.43915224 -46.3879051
-0.441866696 -1.43915224 -45.9021683
-0.441866696 -1.43915224 -45.4164314
-0.441866696 -1.43915224 -44.9306946
-0.441866696 -1.43915224 -44.4449577
-0.441866696 -1.43915224 -43.9592209
-0.441866696 -1.43915224 -43.473484
-0.441866696 -1.43915224 -42.9877472
-0.441866696 -1.43915224 -42.5020103
-0.441866696 -1.43915224 -42.0162735
-0.441866696 -1.43915224 -41.5305328
-0.441866696 -1.43915224 -41.044796
-0.441866696 -1.43915224 -40.5590591
-0.441866696 -1.43915224 -40.0733223
-0.441866696 -1.43915224 -39.5875854
-0.441866696 -1.43915224 -39.1018486
-0.441866696 -1.43915224 -38.6161118
-0.441866696 -1.43915224 -38.1303749
-0.441866696 -1.43915224 -37.6446381
-0.441866696 -1.43915224 -37.1589012
-0.441866696 -1.43915224 -36.6731644
-0.441866696 -1.43915224 -36.1874275
-0.441866696 -1.43915224 -35.7016907
-0.441866696 -1.43915224 -35.2159538
-0.441866696 -1.43915224 -34.7302132
-0.441866696 -1.43915224 -34.2444763
-0.441866696 -1.43915224 -33.7587395
-0.441866696 -1.43915224 -33.2730026
-0.441866696 -1.43915224 -32.7872658
-0.441866696 -1.43915224 -32.3015289
-0.441866696 -1.43915224 -31.8157921
-0.441866696 -1.43915224 -31.3300552
-0.441866696 -1.43915224 -30.8443184
-0.441866696 -1.43915224 -30.3585815
-0.441866696 -1.43915224 -29.8728428
-0.441866696 -1.43915224 -29.3871059
-0.441866696 -1.43915224 -28.9013691
-0.441866696 -1.43915224 -28.4156322
-0.441866696 -1.43915224 -27.9298954
-0.441866696 -1.43915224 -27.4441586
-0.441866696 -1.43915224 -26.9584198
-0.441866696 -1.43915224 -26.472683
-0.441866696 -1.43915224 -25.9869461
-0.441866696 -1.43915224 -25.5012093
-0.441866696 -1.43915224 -25.0154724
-0.441866696 -1.43915224 -24.5297356
-0.441866696 -1.43915224 -24.0439987
-0.441866696 -1.43915224 -23.55826
-0.441866696 -1.43915224 -23.0725231
-0.441866696 -1.43915224 -22.5867863
-0.441866696 -1.43915224 -22.1010494
-0.441866696 -1.43915224 -21.6153126
-0.441866696 -1.43915224 -21.1295757
-0.441866696 -1.43915224 -20.6438389
-0.441866696 -1.43915224 -20.1581001
-0.441866696 -1.43915224 -19.6723633
-0.441866696 -1.43915224 -19.1866264
-0.441866696 -1.43915224 -18.7008896
-0.441866696 -1.43915224 -18.2151527
-0.441866696 -1.43915224 -17.7294159
-0.441866696 -1.43915224 -17.2436771
-0.441866696 -1.43915224 -16.7579403
-0.441866696 -1.43915224 -16.2722034
-0.441866696 -1.43915224 -15.7864666
-0.441866696 -1.43915224 -15.3007298
-0.441866696 -1.43915224 -14.814992
-0.441866696 -1.43915224 -14.3292551
-0.441866696 -1.43915224 -13.8435183
-0.441866696 -1.43915224 -13.3577814
-0.441866696 -1.43915224 -12.8720436
-0.441866696 -1.43915224 -12.3863068
-0.441866696 -1.43915224 -11.9005699
-0.441866696 -1.43915224 -11.4148321
-0.441866696 -1.43915224 -10.9290953
-0.441866696 -1.43915224 -10.4433584
-0.441866696 -1.43915224 -9.95762062
-0.441866696 -1.43915224 -9.47188377
-0.441866696 -1.43915224 -8.98614693
-0.441866696 -1.43915224 -8.50041008
-0.441866696 -1.43915224 -8.01467228
-0.441866696 -1.43915224 -7.52893543
-0.441866696 -1.43915224 -7.04319811
-0.441866696 -1.43915224 -6.55746126
-0.441866696 -1.43915224 -6.07172394
-0.441866696 -1.43915224 -5.58598709
-0.441866696 -1.43915224 -5.10024977
-0.441866696 -1.43915224 -4.61451244
-0.441866696 -1.43915224 -4.1287756
-0.441866696 -1.43915224 -3.64303827
-0.441866696 -1.43915224 -3.15730119
-0.441866696 -1.43915224 -2.6715641
-0.441866696 -1.43915224 -2.18582702
-0.441866696 -1.43915224 -1.70008981
-0.441866696 -1.43915224 -1.21435273
-0.441866696 -1.43915224 -0.728615582
-0.441866696 -1.43915224 -0.242878437
-0.441866696 -1.43915224 0.242858693
-0.441866696 -1.43915224 0.728595853
-0.441866696 -1.43915224 1.21433294
-0.441866696 -1.43915224 1.70007014
-0.441866696 -1.43915224 2.18580723
-0.441866696 -1.43915224 2.67154431
-0.441866696 -1.43915224 3.1572814
-0.441866696 -1.43915224 3.64301872
-0.441866696 -1.43915224 4.12875557
-0.441866696 -1.43915224 4.61449289
-0.441866696 -1.43915224 5.10023022
-0.441866696 -1.43915224 5.58596706
-0.441866696 -1.43915224 6.07170439
-0.441866696 -1.43915224 6.55744123
-0.441866696 -1.43915224 7.04317856
-0.441866696 -1.43915224 7.52891588
-0.441866696 -1.43915224 8.01465321
-0.441866696 -1.43915224 8.50039005
-0.441866696 -1.43915224 8.9861269
-0.441866696 -1.43915224 9.47186375
-0.441866696 -1.43915224 9.95760155
-0.441866696 -1.43915224 10.4433384
-0.441866696 -1.43915224 10.9290752
-0.441866696 -1.43915224 11.414813
-0.441866696 -1.43915224 11.9005499
-0.441866696 -1.43915224 12.3862867
-0.441866696 -1.43915224 12.8720245
-0.441866696 -1.43915224 13.3577614
-0.441866696 -1.43915224 13.8434982
-0.441866696 -1.43915224 14.3292351
-0.441866696 -1.43915224 14.8149729
-0.441866696 -1.43915224 15.3007097
-0.441866696 -1.43915224 15.7864466
-0.441866696 -1.43915224 16.2721844
-0.441866696 -1.43915224 16.7579212
-0.441866696 -1.43915224 17.2436581
-0.441866696 -1.43915224 17.7293949
-0.441866696 -1.43915224 18.2151318
-0.441866696 -1.43915224 18.7008705
-0.441866696 -1.43915224 19.1866074
-0.441866696 -1.43915224 19.6723442
-0.441866696 -1.43915224 20.1580811
-0.441866696 -1.43915224 20.6438179
-0.441866696 -1.43915224 21.1295547
-0.441866696 -1.43915224 21.6152916
-0.441866696 -1.43915224 22.1010303
-0.441866696 -1.43915224 22.5867672
-0.441866696 -1.43915224 23.072504
-0.441866696 -1.43915224 23.5582409
-0.441866696 -1.43915224 24.0439777
-0.441866696 -1.43915224 24.5297146
-0.441866696 -1.43915224 25.0154533
-0.441866696 -1.43915224 25.5011902
-0.441866696 -1.43915224 25.986927
-0.441866696 -1.43915224 26.4726639
-0.441866696 -1.43915224 26.9584007
-0.441866696 -1.43915224 27.4441376
-0.441866696 -1.43915224 27.9298744
-0.441866696 -1.43915224 28.4156132
-0.441866696 -1.43915224 28.90135
-0.441866696 -1.43915224 29.3870869
-0.441866696 -1.43915224 29.8728237
-0.441866696 -1.43915224 30.3585606
-0.441866696 -1.43915224 30.8442974
-0.441866696 -1.43915224 31.3300343
-0.441866696 -1.43915224 31.815773
-0.441866696 -1.43915224 32.3015099
-0.441866696 -1.43915224 32.7872467
-0.441866696 -1.43915224 33.2729836
-0.441866696 -1.43915224 33.7587204
-0.441866696 -1.43915224 34.2444572
-0.441866696 -1.43915224 34.7301941
-0.441866696 -1.43915224 35.2159309
-0.441866696 -1.43915224 35.7016678
-0.441866696 -1.43915224 36.1874046
-0.441866696 -1.43915224 36.6731453
-0.441866696 -1.43915224 37.1588821
-0.441866696 -1.43915224 37.644619
-0.441866696 -1.43915224 38.1303558
-0.441866696 -1.43915224 38.6160927
-0.441866696 -1.43915224 39.1018295
-0.441866696 -1.43915224 39.5875664
-0.441866696 -1.43915224 40.0733032
-0.441866696 -1.43915224 40.5590401
-0.441866696 -1.43915224 41.0447769
-0.441866696 -1.43915224 41.5305138
-0.441866696 -1.43915224 42.0162506
-0.441866696 -1.43915224 42.5019875
-0.441866696 -1.43915224 42.9877281
-0.441866696 -1.43915224 43.473465
-0.441866696 -1.43915224 43.9592018
-0.441866696 -1.43915224 44.4449387
-0.441866696 -1.43915224 44.9306755
-0.441866696 -1.43915224 45.4164124
-0.441866696 -1.43915224 45.9021492
-0.441866696 -1.43915224 46.387886
-0.441866696 -1.43915224 46.8736229
-0.441866696 -1.43915224 47.3593597
-0.441866696 -1.43915224 47.8450966
-0.441866696 -1.43915224 48.3308334
-0.441866696 -1.43915224 48.8165703
-0.441866696 -1.43915224 49.3023109
-0.441866696 -1.43915224 49.7880478
-0.441866696 -1.43915224 50.2737846
-0.441866696 -1.43915224 50.7595215
-0.441866696 -1.43915224 51.2452583
-0.441866696 -1.43915224 51.7309952
-0.441866696 -1.43915224 52.216732
-0.441866696 -1.43915224 52.7024689
-0.441866696 -1.43915224 53.1882057
-0.441866696 -1.43915224 53.6739426
-0.441866696 -1.43915224 54.1596794
-0.441866696 -1.43915224 54.6454163
-0.441866696 -1.43915224 55.1311531
-0.441866696 -1.43915224 55.61689
-0.441866696 -1.43915224 56.1026306
-0.441866696 -1.43915224 56.5883675
-0.441866696 -1.43915224 57.0741043
-0.441866696 -1.43915224 57.5598412
-0.441866696 -1.43915224 58.045578
-0.441866696 -1.43915224 58.5313148
-0.441866696 -1.43915224 59.0170517
-0.441866696 -1.43915224 59.5027885
-0.441866696 -1.43915224 59.9885254
-0.441866696 -1.43915224 60.4742622
-0.866130769 -1.26341629 60.9599991
-1.04186666 -0.839152217 60.9599991
-0.866130769 -0.414888173 60.9599991
-0.441866696 -0.239152238 60.4742622
-0.441866696 -0.239152238 59.9885254
-0.441866696 -0.239152238 59.5027885
-0.441866696 -0.239152238 59.0170517
-0.441866696 -0.239152238 58.5313148
-0.441866696 -0.239152238 58.045578
-0.441866696 -0.239152238 57.5598412
-0.441866696 -0.239152238 57.0741043
[...]
CELL_DATA 9457
SCALARS TALLY_TAG double 1
LOOKUP_TABLE default
0.0003451350279 
0.0004892896561 
0.000493587654 
0.0004058526111 
0.0001910431585 
0.000350180795 
0.0003668026234 
0.0005002531111 
0.0003584963905 
0.0003513304807 
0.00054423475 
0.0005699046289 
0.0002489958231 
0.00040850698 
0.0005381952483 
0.0005752914847 
0.0003509687111 
0.000300195454 
0.0003751923927 
0.0003282962712 
0.0003919406663 
0.000197147262 
0.0002144080868 
0.0002728451005 
0.0002707442754 
0.0003029496546 
0.0003572480076 
0.0005298495627 
0.0004309191792 
0.0003445331799 
0.0001809230605 
0.0002374866658 
0.0003483838598 
0.0003695590807 
0.0005534801798 
0.000220541801 
0.0002917095162 
0.0002602213598 
0.0006111145742 
0.0005062771939 
0.0004439628459 
0.0005149900584 
0.0005391605731 
0.0003471530467 
0.0007324285494 
0.0005574871317 
0.0005746036572 
0.0006249463939 
0.000578568592 
0.0002274937499 
0.000447113684 
0.0003052385727 
0.0005161857954 
0.000363613423 
0.0008548936429 
0.0001962221028 
0.0002294887294 
0.0002128970868 
0.0005609942384 
0.000523463624 
0.00039543902 
0.0003801361541 
0.0002396924327 
0.0005213823503 
0.0002909875306 
0.0001517835551 
0.0003995319413 
0.0004290088253 
0.000650755953 
0.0002777006267 
0.0003538983092 
0.000570279844 
0.0003726756639 
0.0003979466951 
0.0005062646536 
0.0004067183158 
0.0003769702177 
0.0006115661266 
0.0004326939102 
0.000308655107 
0.0004585374217 
0.0002739438732 
0.0007300129648 
0.0002982820017 
0.000448286085 
0.0003139423225 
0.0002425265218 
0.00044051463 
0.0003077853828 
0.0003139935963 
0.0003350852615 
0.0005204134578 
0.0003308559347 
0.0005305162936 
0.0002822213896 
0.0006557614327 
0.0005958422125 
0.0003623463978 
0.0002204214047 
0.0004229672922 
0.0005056106451 
0.0001739077416 
0.0002124820173 
0.0002226717057 
0.000234582549 
0.000357440716 
0.0004532425705 
0.0005409773996 
7.142335509e-05 
0.0003662086974 
0.0001856175599 
0.0003852122023 
0.000357307702 
0.0003141404512 
0.000339430236 
0.0002538058848 
0.0007255299248 
0.0002710601859 
0.0002722868296 
0.0001797807255 
0.0004217622346 
0.000304502211 
0.0001218224008 
0.0001722168712 
0.0004343179422 
0.000346010381 
0.0004686374033 
0.0004433147891 
0.000466872173 
0.0003278525414 
0.0003057437511 
0.0001892922533 
0.0002863042769 
0.0006023673582 
0.0006865187673 
0.0002009504287 
0.0001074170375 
0.0003829619202 
0.0006238754478 
0.0003020661201 
0.0004420792755 
0.0004189192366 
0.0003730187337 
0.0005158368871 
0.000604180063 
0.0006764879023 
0.0004840413679 
0.0006861071117 
0.0003606665229 
0.000694809896 
0.0004013269745 
0.0005495817187 
0.0003975646958 
0.000424499767 
0.0003278042285 
0.0002925964736 
0.0001564637177 
0.0001678374471 
0.0004152799344 
0.0003932840577 
0.0003922348203 
0.0005788180964 
0.000383700843 
0.0002184456336 
0.0002130621563 
0.0004120022896 
0.0004130458607 
0.0002164088809 
0.0003163447348 
0.0003170979626 
0.0003762724828 
0.0005604775488 
0.0005245612511 
0.0007022115799 
0.00030352352 
0.000256884007 
0.0003215677094 
0.0004523506726 
0.0003937858138 
0.0002639514768 
0.0003627520497 
0.0002403704911 
0.0003754831513 
0.0002457565109 
0.0006354173733 
0.0003621202096 
0.0003976043104 
0.0004304306896 
0.0003666362637 
0.0003362489841 
0.0002764688398 
0.000381840981 
0.0004044535372 
0.0002285651142 
0.0002789291623 
0.0002427312938 
0.0003186563797 
0.0002416644118 
0.0001688659077 
0.0003413699995 
0.0003087093697 
0.0003169014074 
0.0004553010542 
0.0004552380524 
0.0005073948218 
0.0003337136758 
0.0005069435734 
0.0004287517829 
0.0002166578431 
0.0002759417421 
0.0002275399702 
0.0001938564633 
0.0002892800273 
0.0002983264687 
0.0001997542606 
0.0005216235279 
0.0008102661424 
0.0005962567282 
0.0005383884647 
0.0004161134895 
0.0005189664165 
0.0007500546164 
0.0003637863091 
0.0004663100464 
0.0002721242261 
0.0009042846163 
0.0004682270635 
0.000505724834 
0.0003045917212 
0.000222283499 
0.0002168834859 
0.000762484137 
0.0003192843811 
0.0004308001037 
0.0006872697873 
0.0004693853027 
0.000469176707 
0.000881122712 
0.0003690852861 
0.0002833275315 
0.0004984570893 
0.0006738345266 
0.0005864688067 
0.0006592078764 
0.0005982303168 
0.0004943168712 
0.000410595951 
0.0003465504903 
0.0005477144692 
0.0004078676117 
0.000615050735 
0.0003648100448 
0.0002833086657 
0.0001352284004 
0.0002424314109 
0.0005644713695 
0.0003445882499 
0.0005551628818 
0.0004965047012 
0.0006448812242 
0.0003917839751 
0.0005027062194 
0.0004800654651 
0.0004806402834 
0.0003575571073 
0.0003255694514 
0.0003964702623 
0.000257182861 
0.0002729080988 
0.0002485757796 
0.0005563855705 
0.0003999612949 
0.0004759562845 
0.0004426623133 
0.0002486938926 
0.0003640781227 
0.0004458732405 
0.000149196033 
0.0002403580362 
0.0003443306126 
0.0003529281765 
0.0002151726144 
0.0003586104876 
0.000223873812 
0.0004390585463 
0.0004934972903 
0.0004247777566 
0.000393570731 
0.0005257822769 
0.0002934997139 
0.0002705060202 
0.000859239064 
0.0002985460115 
0.0002014977962 
0.00034161049 
0.000180837412 
0.000201073042 
0.0001847350056 
0.0004303154214 
0.0003660855127 
0.0003321548399 
0.0005396527132 
0.0004095269216 
0.0005587837117 
0.000345794693 
0.0003970587432 
0.0004898585204 
0.0003214381024 
0.0004052517016 
0.0004272332134 
0.0006884535622 
0.0007129038111 
0.0003440390729 
0.0006290364673 
0.0004400315986 
0.0006245216027 
0.0002097986365 
0.0002541146708 
0.0003142750589 
0.000385852009 
0.0004473882594 
0.000488790348 
0.0006881996091 
0.0004847789928 
0.0007871633988 
0.0007371034571 
0.0007460442626 
0.0007635940282 
0.0004508211463 
0.0004351692801 
0.0005454020737 
0.0009634968927 
0.0004786483041 
0.0006044058457 
0.0003501247274 
0.0004671819104 
0.0003188479082 
0.0004772626358 
0.0006872781794 
0.0005234532633 
0.0002386026465 
0.0003780377804 
0.0006485793197 
0.0006831134034 
0.0004136633518 
0.0005191815531 
0.0003999246228 
0.0006612861956 
0.0003432760276 
0.0003329436086 
0.000457763648 
0.0002705485451 
0.0004067608761 
0.000416273351 
0.0002337941843 
0.0002468546599 
0.0002221931661 
0.0002557281482 
0.0004656416067 
0.0002407222913 
0.000532685922 
0.0006152883049 
0.0003089475595 
0.0003998750868 
0.0004894474542 
0.0002622578905 
0.0003548211654 
0.0004106604144 
0.0005217795718 
0.0005655427576 
0.0003952440815 
0.0004049634234 
0.00030997987 
0.0003523772432 
0.0002853782097 
0.0001685062696 
0.0003031580765 
0.000240266312 
0.0002686982236 
0.0002648368302 
0.0004319672963 
0.0003232559259 
0.0003573741904 
0.0007153655718 
0.0005716210978 
0.0005130105713 
0.0004988624876 
0.0002571305588 
0.0006648831754 
0.0005373859385 
0.0001925719914 
0.0002132458117 
0.0005195039296 
0.0001765713878 
0.0004195789966 
0.0005280800429 
0.0002234385263 
0.0002834866512 
0.0001342003745 
0.0003155322689 
0.0005677308715 
0.0004551821431 
0.000620826417 
0.0002638078102 
0.000198994098 
0.0004718908076 
0.0007325468245 
0.0004954217984 
0.0004920595035 
0.000307439346 
0.0004413910777 
0.0003430046132 
0.0003009594278 
0.0005816616569 
0.0004845521132 
0.0003910308688 
0.0005572927831 
0.0004558939713 
0.0003670255502 
0.000635974809 
0.0004262707707 
0.0004702510204 
0.0002566631548 
0.0002954798152 
0.0004089872225 
0.0004110918441 
0.0005077922075 
0.0003824165678 
0.000337602971 
0.0002022560155 
0.0002513657002 
0.000424098467 
0.0002587171217 
0.0003045224719 
0.0002005737227 
0.000225246665 
0.0004518868649 
0.0001965727205 
0.0002236704796 
0.0004604030368 
0.0005678977395 
0.0003009753031 
0.000920685485 
0.0005618299757 
0.000366181333 
0.000250097926 
0.0005015676555 
0.0006414027431 
0.0005362972138 
0.0003456442147 
0.0003566509427 
0.000525219763 
0.0002694280095 
8.550089212e-05 
0.0002064646665 
0.0004917213884 
0.0002713326915 
0.0003188169938 
0.0004121285326 
0.0003815235513 
0.0005448345196 
0.0003765327374 
0.0002136969657 
0.0002398388482 
0.0002186309519 
0.0003262818038 
0.0002000381794 
0.0004368526234 
0.0002119914033 
0.0006150360379 
0.0003500801231 
0.0006243299587 
0.00100476899 
0.0006310327187 
0.0005175271528 
0.0003948333566 
0.0004717970321 
0.0003463854289 
0.0008110515981 
0.0004805989825 
0.0002096433637 
0.0002106023859 
0.0005760598792 
0.0004356242521 
0.0003655770784 
0.0003666789949 
0.0001301759527 
0.000898704841 
0.0005528254626 
0.0003234526922 
0.0003409160433 
0.000644562374 
0.0002672032591 
0.0003323000992 
0.000404902503 
0.0002514182981 
0.0003062977074 
0.0006104735111 
0.0004205530393 
0.0004425906072 
0.0005337514687 
0.000403174724 
0.0002851457818 
0.0003033183669 
0.0003791394495 
0.000369968752 
0.0002643908178 
0.0006084075919 
0.0005621737709 
0.0005196250089 
0.000514484585 
0.0005166039969 
0.0003654527724 
0.0004231958175 
0.0003240206703 
0.0002845977739 
0.0005166525021 
0.000346993924 
0.0003411826721 
0.0003888484842 
0.0004038189845 
0.0003414041628 
0.0003864400034 
0.0004062548838 
0.0003301557512 
0.0002659617987 
0.0002225899571 
0.0007942313604 
0.000708819301 
0.0004402573793 
0.000408776501 
0.000368436217 
0.0006591347613 
0.0004721199494 
0.0003610181083 
0.0004737585705 
0.0002408515095 
0.0004666213906 
0.0002451408309 
0.000448478671 
0.00056605447 
0.0004161378043 
0.0003397475926 
0.0002899925703 
0.0004953009563 
0.0003694455107 
0.0003221679779 
0.000344305844 
0.0006257180931 
0.0004044349695 
0.0006436001781 
0.0005453297864 
0.0001835077884 
0.000256336401 
0.0002639854892 
0.0004225565965 
0.0001872175185 
0.0005491783374 
0.0004244958356 
0.0004151807868 
0.0002561259254 
0.000388020913 
0.0003404326741 
0.0004277010718 
0.0006210155684 
0.0005917001606 
0.0005116196828 
0.0003032465669 
0.0003076850503 
0.0003123116323 
0.0002640372639 
0.0001815524183 
0.0002967908579 
0.0006906539588 
0.0006118730658 
0.0008616204662 
0.0005534282668 
0.0003741957436 
0.0003381191408 
0.0004737499418 
0.0004992615293 
0.000367174722 
0.0003602382396 
0.0005300763391 
0.0003657567515 
0.0005171601678 
0.0003923820966 
0.0004899366312 
0.0004835444659 
0.0008198986147 
0.0003770555073 
0.0003779366992 
0.0002372322798 
0.0002335040581 
0.0002434619122 
0.0004718419101 
0.0003342799297 
0.0005932782467 
0.0005439211131 
0.0003481261579 
0.0003569685614 
0.0002277572185 
0.0002620874929 
0.000638423397 
0.0004639984391 
0.0003967940368 
0.0004038348992 
0.0005635551959 
0.0003487586109 
0.0005247339729 
0.0004282484923 
0.0005173544178 
0.0003553892324 
0.0001208457378 
0.0004776482947 
0.0002746289109 
0.0003220794344 
0.0003674234387 
0.0002793438648 
0.0001683560021 
0.0005931082237 
0.001068031835 
0.0006646351277 
0.000328001727 
0.0002961870665 
0.0003009748502 
0.0002176023471 
0.0002283886764 
0.0007009685775 
0.0005456048684 
0.0005907657591 
0.0004446680653 
0.0004229158853 
0.0004678606234 
0.000441695093 
0.0005047477627 
0.0005413762554 
0.0004333236232 
0.0002029432787 
0.0003138653906 
0.0006149060611 
0.0003063442674 
0.0005053438562 
0.0002949393133 
0.0003488197449 
0.0003284638411 
0.0006563776435 
0.0007412166901 
0.0005878566282 
0.000265265504 
0.0004691246154 
0.0003478857656 
0.0005703429481 
0.0006532035078 
0.0002537451986 
0.0002159615769 
0.0005748872085 
0.0002982939748 
0.0004693457222 
0.0002313076458 
0.0002701190313 
0.0005235171834 
0.0002862799657 
0.0003846343407 
0.0005110949864 
0.0002686397354 
0.0003043686642 
0.0006092427863 
0.000403843671 
0.0003193765247 
0.0005219008116 
0.0004218870805 
0.000691402336 
0.0004388461669 
0.00025105733 
0.0002897603573 
0.0003217631156 
0.0007095678085 
0.0001938501193 
0.000851007941 
0.0007086349453 
0.0004243108891 
0.0001986808369 
0.0005355156234 
0.0006878252987 
0.0004616140455 
0.0008187450195 
0.0003809933689 
0.0003294774685 
0.0005195677605 
0.0003042353926 
0.000363150008 
0.0003588810814 
0.0006272149789 
0.0003578681236 
0.0003440816554 
0.0004594874731 
0.0003922917896 
0.0003126910074 
0.0003008497974 
0.0004003807174 
0.0002412525616 
0.0003470102849 
0.0004165940355 
0.0001614526725 
0.0004358879282 
0.0002053334489 
0.0002464367308 
0.0003957660928 
0.0003031201967 
0.0004367058664 
0.000230317367 
0.0002388505303 
0.0003533485536 
0.0001265856363 
0.000337011994 
0.0001860079279 
0.0001806540728 
0.0004016452532 
0.0002455187514 
0.0002159507831 
0.0003575169026 
0.0001765974879 
0.000293691627 
0.000419083771 
0.000243488261 
0.0002147601499 
0.0002347389104 
0.0003887866097 
0.0005611117385 
9.175389991e-05 
0.0003667944805 
0.0007191933879 
0.0006512082332 
0.0004775985337 
0.0007503013681 
0.0007461138801 
0.0004520250851 
0.0002961810388 
0.0002701469137 
0.0004034812894 
0.0001488350658 
0.0005087441161 
0.0006128821111 
0.0006171510424 
0.0006128774899 
0.0007023660277 
0.0004661945599 
0.0002305006714 
0.0004371588085 
0.0005618027165 
0.0001908238197 
0.0002613443061 
0.0001923731847 
0.0002355406645 
0.0003440645244 
0.0007709379745 
0.0002222131044 
0.0006438253379 
0.0001656293008 
0.0006304114433 
0.0001870893528 
0.0004730608578 
0.0003749900952 
0.0003053652012 
0.0001372638314 
9.813169584e-05 
0.0005673340416 
0.0006369645115 
0.0007148129595 
0.0006367212631 
0.000596107367 
0.0003500187463 
0.0002348883057 
0.0004258782136 
0.0002479631352 
0.0003141682134 
0.0002705756874 
0.0004360064146 
0.0003430114293 
0.0003418259104 
0.0002398973797 
0.0002565546427 
0.000340715334 
0.0003064310534 
0.0003638922917 
0.0005013741484 
0.0004000744151 
0.0001836682614 
0.0001723513449 
0.0003129436811 
0.0003725802433 
0.0002695401374 
0.000206629054 
0.0006400213281 
0.0006550900635 
0.0004058655572 
0.000217471229 
0.0006897191277 
0.0003086630308 
0.0006784529985 
0.0005388490786 
0.0005476382715 
0.0003101177315 
0.000811558385 
0.0004859182581 
0.0001981229137 
0.0003811548303 
0.0005569186422 
0.0005596726903 
0.0002502131121 
0.0003501986818 
0.0003528222456 
0.0002560447504 
0.0001854750329 
0.0003835137135 
0.0003513935659 
0.0004758389101 
0.0004417659563 
0.0002307772588 
0.0008006336458 
0.0004428030478 
0.0003260423426 
0.0007644583597 
0.0003123405876 
0.0004037296146 
0.0004961622193 
0.0003698626303 
0.0005812998034 
0.0005622253804 
0.0003767732746 
0.0004195672951 
0.0002845632325 
0.0003074583502 
0.0005366537518 
0.0003455489645 
0.0003858633446 
0.0004286113186 
0.0004487420592 
0.0003098422405 
0.0006794724093 
0.0007611700559 
0.0006839989736 
0.0003485159426 
0.0002771824504 
0.0008600674003 
0.0006569160798 
0.0004636264426 
0.0004393623337 
0.0003738324188 
0.0004550637506 
0.0002629474384 
0.0006921958212 
0.0004022184144 
0.0005964389178 
0.0002552580878 
0.0006269878062 
0.0004589764057 
0.0002895300764 
0.0004100501258 
0.0003937926072 
0.0003834649748 
0.000406135118 
0.0004290692959 
0.0003191675662 
0.0008359000266 
0.0003853465988 
0.0003148227025 
0.0002286240732 
0.0002569536774 
0.0003142722208 
0.0006117550544 
0.0002360820819 
8.186441442e-05 
0.0001498060074 
0.0006043310369 
0.0001862803977 
0.0002049219268 
0.0005788880717 
0.000367517972 
0.000365907274 
0.000134116323 
8.730609046e-05 
0.0004831933368 
0.0001705894628 
0.0002654548706 
0.0003547860955 
0.000262754775 
0.0003578701384 
0.0004015067294 
0.0002581068187 
0.0001724033978 
0.0002992183427 
0.0003508179254 
0.0001720442967 
0.0003427378998 
0.0002835037337 
0.0004029144405 
0.0002997882741 
0.0003215480738 
0.0003855472885 
0.0002130087782 
0.000344154467 
0.0004616905728 
0.0002764353248 
0.0004046987468 
0.0004159070489 
0.000407039639 
0.0003749885332 
0.000407107303 
0.0004283699173 
0.0004480173374 
0.0004143330802 
0.0002997950745 
0.0002602316661 
0.0005767935963 
0.0002697824014 
0.000380709814 
0.0003802568942 
0.0005729976668 
0.0008500478447 
0.0004185515628 
0.0008329792238 
0.0003598103669 
0.0006620028867 
0.0002112561617 
0.0002918429211 
0.0001292464926 
0.000519739275 
0.0005795252815 
0.001099032167 
0.0004208175527 
0.0004589090405 
0.0007524093899 
0.000538918955 
0.0003678647532 
0.0003040074397 
0.0005663929651 
0.0006008763597 
0.0005149400068 
0.0002502663967 
0.0004106366926 
0.0007251145094 
0.0003401237671 
0.0003947957291 
0.0004475093502 
0.0005365423705 
0.0002937376762 
0.0005477261381 
0.0004782950349 
0.0001785333742 
0.0003150337388 
0.0004587478604 
0.0005282214617 
0.0009482482151 
0.0006586195785 
0.0006808738971 
0.0002649914831 
0.0004227340919 
0.0003720477503 
0.0006639489713 
0.0004820216517 
0.000360694826 
0.0002792330748 
0.0002621923904 
0.0005906576035 
0.0004492209213 
0.0006599225862 
0.0003102844658 
0.0004401249953 
0.0003749934929 
0.0004262395561 
0.000238022467 
0.0002841508834 
0.0006170084125 
0.0003666021421 
0.0003829104482 
0.0006469442738 
0.0002658565283 
0.0003939323017 
0.0002837197584 
0.0003617481997 
0.0005431968622 
0.0001514800957 
0.0005714030068 
0.0001613526239 
0.0003496240824 
0.0004549716095 
0.0007125839044 
0.0003744231379 
0.000532460326 
0.0004171832059 
0.0003139512157 
0.0002847760235 
0.0001523129782 
0.0001551301179 
0.0004119871708 
0.0005463584382 
0.0003192406592 
0.0002522496842 
0.0005592645456 
0.0005739838396 
0.0002947650829 
0.0002869587197 
0.0003536760268 
0.0003671693308 
0.0005765630109 
0.0003503256659 
0.0003492981792 
0.0004566756319 
0.0003251140581 
0.0006805026719 
0.0005737092949 
0.0005218250818 
0.000510616889 
0.0004059889224 
0.0004506434397 
0.000516756709 
0.0005697845332 
0.0008062552468 
0.0005417904869 
0.0005571849078 
0.000135821789 
0.0003122469327 
0.0001725213918 
0.0002581208374 
0.0001874503151 
0.0003360639561 
0.0005416698946 
0.0004996173986 
0.0007259529303 
0.0004271123927 
0.0005693062824 
0.0004885736329 
0.0004882010126 
0.0001235876758 
0.0001849367193 
0.0003531043898 
0.0002394439759 
0.0001412225947 
0.0007702465626 
0.0005504280276 
0.0004109680088 
0.0002397007199 
0.0004448677489 
0.0004453588686 
0.000470029094 
0.0001123396322 
0.000229554415 
0.0004262054899 
0.0002800529114 
0.0001968920427 
0.000518827434 
0.0005295458992 
0.0003827413721 
0.0004856370703 
0.0004721582825 
0.0006777167028 
0.0006434748254 
0.0006167678524 
0.0005098428149 
0.0005180407269 
0.0005697290125 
0.000535051372 
0.0003612084846 
0.0004186227865 
0.0003314577631 
0.0004826252489 
0.0003441876386 
0.0003944628453 
0.0002981614004 
0.0005200733991 
0.0003128272992 
0.0003831322237 
0.0005862070831 
0.0005974730621 
0.0006291554006 
0.0004060828456 
0.000398261268 
0.000358318611 
0.0002320826296 
0.0003039644749 
0.0001555127093 
0.000247551821 
0.0002613872357 
0.0005185928762 
5.697814642e-05 
0.0001986616589 
0.0004266331845 
0.0004436997156 
0.0001341102125 
0.0003042822535 
0.0002738286494 
0.0002407365356 
0.0003168706192 
0.0002678202162 
0.0003986616056 
0.0006065318883 
0.0005013697264 
0.000341772984 
0.0004973573198 
0.000640882923 
0.000392367693 
0.000674556588 
0.0002200781218 
0.000325811413 
0.0003302128475 
0.000371469708 
0.0002207544225 
0.0004304762401 
0.0003971139197 
0.0004397288562 
0.000324047898 
0.0003704317187 
0.0003260834358 
0.0002599618099 
0.000461023573 
0.0005730554703 
0.0008751637831 
0.0005290594939 
0.0003408040219 
0.0005374094381 
0.0006092271462 
0.0006893998213 
0.0003643916736 
0.0006778085396 
0.0005584475988 
0.0003890139326 
0.0003541614145 
0.000191560315 
0.0001321729208 
0.0003129082576 
0.0005149717735 
0.0003402378843 
0.0005807020469 
0.0002289299816 
0.000258484874 
0.0004154575489 
0.0003534837136 
0.0004729820937 
0.0003505396172 
0.000898861193 
0.0002690806848 
0.0003565403271 
0.0004576961678 
0.0001652813257 
0.0004082695994 
0.0003948217943 
0.0002105127894 
0.0007352352671 
0.0004534719415 
0.0009738518979 
0.0005337275512 
0.0005214364326 
0.0006960686885 
0.0002289754215 
0.0002951788837 
0.0006395934564 
0.0002577897114 
0.0001532353481 
0.0002369730953 
0.0002674188706 
0.0005082277245 
0.0007052932891 
0.0009530755902 
0.0005454789423 
0.0005569547614 
0.0004203915709 
0.000747722182 
0.0004161568945 
0.0004341507493 
0.0005787293156 
0.0006511709393 
0.0007041560523 
0.0004535258651 
0.0001709832752 
0.0002706420239 
0.0006505175889 
0.0002682366737 
0.0001406495336 
0.0004454004848 