# vtk DataFile Version 3.0
MOAB 4.8.3pre
ASCII
DATASET UNSTRUCTURED_GRID
POINTS 258 double
0.75 6.123233996e-17 -0.5
0.7880602337 0.1913417162 -0.5
0.8964466094 0.3535533906 -0.5
1.058658284 0.4619397663 -0.5
1.25 0.5 -0.5
1.441341716 0.4619397663 -0.5
1.603553391 0.3535533906 -0.5
1.711939766 0.1913417162 -0.5
1.75 0 -0.5
1.711939766 -0.1913417162 -0.5
1.603553391 -0.3535533906 -0.5
1.441341716 -0.4619397663 -0.5
1.25 -0.5 -0.5
1.058658284 -0.4619397663 -0.5
0.8964466094 -0.3535533906 -0.5
0.7880602337 -0.1913417162 -0.5
0.75 6.123233996e-17 0.5
0.7880602337 -0.1913417162 0.5
0.8964466094 -0.3535533906 0.5
1.058658284 -0.4619397663 0.5
1.25 -0.5 0.5
1.441341716 -0.4619397663 0.5
1.603553391 -0.3535533906 0.5
1.711939766 -0.1913417162 0.5
1.75 -1.224646799e-16 0.5
1.711939766 0.1913417162 0.5
1.603553391 0.3535533906 0.5
1.441341716 0.4619397663 0.5
1.25 0.5 0.5
1.058658284 0.4619397663 0.5
0.8964466094 0.3535533906 0.5
0.7880602337 0.1913417162 0.5
0.9722082135 0.4157303493 0.002296580092
1.152450547 0.4903917864 0.00243671323
1.347540777 0.4903935121 0.00253689464
1.527781394 0.4157372936 0.002540114026
1.665732365 0.2777887698 0.002540521497
1.740391794 0.09754941354 0.002540579871
1.740393466 -0.09754100763 0.002540643512
1.665737003 -0.2777818287 0.002541001128
1.527787733 -0.4157330576 0.002543068742
1.347545968 -0.4903924797 0.002554350711
1.152448599 -0.490391399 0.002612630707
0.9722201298 -0.4157383116 0.002659192129
0.8342709044 -0.2777936628 0.002689742991
0.8342762402 0.2778016478 0.002359346965
0.7596088407 0.09755260587 0.002563573088
0.7596142352 -0.09757971952 0.002712426452
0.8964471582 -0.3535539394 0.169090351
1.058663292 -0.4619418409 0.1690820167
1.250009541 -0.4999999999 0.1688957248
1.441350691 -0.4619360485 0.1688903664
1.60356038 -0.3535464012 0.1688897185
1.711943572 -0.1913325285 0.1688896432
1.75 9.972457277e-06 0.1688896315
1.71193593 0.1913509782 0.1688896009
1.60354616 0.3535606212 0.1688893733
1.441331514 0.4619439922 0.1688876413
1.249985613 0.4999999998 0.1688744265
1.058632336 0.4619290173 0.1687731682
0.8964595669 0.3535663476 0.1687526974
0.7880633942 0.1913493459 0.16876169
0.7880830198 -0.1913967174 0.1690585053
0.7500000017 4.104430722e-05 0.1687606598
0.8964359774 0.3535427582 -0.1641581878
1.058680855 0.461949115 -0.1639166172
1.250000041 0.5 -0.1638204064
1.441341702 0.4619397721 -0.1638202976
1.603553374 0.353553407 -0.163820282
1.71193976 0.1913417306 -0.163820278
1.75 -1.936919254e-08 -0.1638202673
1.71193971 -0.1913418517 -0.1638202033
1.603552973 -0.3535538087 -0.1638198145
1.44133981 -0.4619405557 -0.1638175475
1.249993621 -0.5 -0.1638055821
1.058644695 -0.4619341372 -0.1637565681
0.8964527483 -0.3535595294 -0.1637249798
0.7880672981 -0.1913587702 -0.1637004475
0.7880622009 0.1913464652 -0.1638421455
0.7500000006 -2.470078979e-05 -0.1635904718
0.8342378247 -0.2777441513 0.3349063075
0.9722624507 -0.4157665856 0.3345654839
1.152467649 -0.490395188 0.3343857138
1.347557971 -0.490390092 0.3343857138
1.527795976 -0.4157275499 0.3343857138
1.665742062 -0.277774257 0.3343857138
1.740395188 -0.09753235154 0.3343857137
1.740390092 0.09755797022 0.3343857131
1.66572755 0.2777959763 0.3343857084
1.527774248 0.415742068 0.3343856741
1.347532276 0.4903952031 0.334385439
1.152441606 0.4903900078 0.3343839095
0.9722022978 0.4157263964 0.3343745904
0.8342532871 0.2777672959 0.3343234579
0.7596005061 0.09751069872 0.3340994152
0.7595989028 -0.09750263527 0.3337582249
0.8342651938 0.2777851165 -0.3310517811
0.9722148835 0.4157348062 -0.3310517811
1.152454839 0.4903926402 -0.3310517811
1.347545161 0.4903926402 -0.3310517811
1.527785117 0.4157348062 -0.3310517811
1.665734806 0.2777851165 -0.3310517811
1.74039264 0.09754516101 -0.3310517811
1.74039264 -0.09754516101 -0.3310517811
1.665734806 -0.2777851165 -0.3310517811
1.527785117 -0.4157348062 -0.3310517811
1.347545161 -0.4903926402 -0.3310517811
1.152454839 -0.4903926402 -0.3310517811
0.9722148835 -0.4157348062 -0.3310517811
0.8342651938 -0.2777851165 -0.3310517811
0.7596073598 -0.09754516101 -0.3310517811
0.7596073598 0.09754516101 -0.3310517811
0.9536465472 0.04618786222 -0.5
1.00287455 0.2416448663 -0.5
1.190365112 0.2954670438 -0.5
1.383106432 0.3225470908 -0.5
1.504232255 0.1690736851 -0.5
1.600783524 0.0003851645617 -0.5
1.50579138 -0.1709888883 -0.5
1.385834781 -0.324582301 -0.5
1.194869128 -0.3031155981 -0.5
1.038880947 -0.2748242166 -0.5
0.9240148157 -0.1469191159 -0.5
1.139128631 0.1028748785 -0.5
1.31529403 0.1472092839 -0.5
1.416993544 -0.002601132257 -0.5
1.313355166 -0.1522756309 -0.5
1.117640405 -0.1046363503 -0.5
1.260482355 -0.00188579022 -0.5
0.969544267 -0.103031765 0.5
1.11902354 -0.2965865035 0.5
1.32262545 -0.2845687188 0.5
1.506250096 -0.2467481756 0.5
1.558201407 -0.06487002854 0.5
1.574801536 0.1288009835 0.5
1.419750895 0.247321626 0.5
1.248790887 0.3453820353 0.5
1.07741235 0.2512011627 0.5
0.9282526776 0.1271648905 0.5
1.221177455 -0.0781489964 0.5
1.402438241 -0.1260788355 0.5
1.403397072 0.0425552318 0.5
1.243096877 0.1463726497 0.5
1.087896725 0.06871158831 0.5
1.110726237 -0.1783854812 -0.1260688305
1.180900335 -0.3617390096 -0.1297549456
1.302721381 -0.1607831717 -0.1299756616
1.184965253 -0.3269213736 0.002600036561
1.114776492 -0.3375417292 -0.2453646511
1.254750609 -0.2222499549 -0.254684031
1.084648371 -0.1436516047 -0.2568347454
0.998393774 -0.2515693009 -0.2562094927
0.9526141286 -0.2004665136 -0.1247095764
1.12373817 -0.07533164322 -0.002670465037
0.979182303 -0.2527414262 0.001116487081
1.219668746 -0.04329782352 -0.1416324526
1.031049967 -0.03462633491 -0.2507101893
1.463059783 -0.09295804054 -0.3751334548
1.519749522 -0.2560150921 -0.2535970211
1.393609524 -0.191325292 -0.2536425889
1.450686216 -0.2911351323 -0.3778195977
1.55961442 0.09058718383 -0.3819922507
1.356383681 0.06429852545 -0.381075114
1.59715724 -0.08332540095 -0.3682122529
1.333341956 -0.2570513487 -0.3786284328
1.323739409 -0.09982158989 -0.3810746074
1.107296467 0.05778951943 0.04625948519
1.057627559 0.2895126641 0.03894719109
1.295029283 0.1111242175 0.004043503664
1.169355392 0.1296989918 -0.1344429255
1.258823991 -0.02876117453 -0.2584091425
1.045685053 0.1115376875 -0.2573685348
1.318246722 -0.3663766682 0.0810123235
1.324617505 -0.3617429435 -0.1297946572
1.435194612 -0.2771610022 0.002501917304
1.448141694 0.2912281156 -0.376187861
1.28753078 -0.2363646626 0.1632636636
1.05249393 -0.3068859875 0.1630217731
1.370385051 -0.3382346928 0.2756128609
1.555957556 -0.2028077841 -0.1285487562
1.470716238 -0.04473161697 -0.1297172755
1.33716619 -0.08671892434 0.002611289965
0.9178019166 0.1779746115 -0.3044440746
1.409392238 0.006994291674 -0.2486784011
1.405454278 0.1709344238 -0.1300458312
1.315573335 0.1418387443 -0.2606957257
1.208310246 0.2358512431 -0.2573568225
1.048128247 0.3057467639 -0.1299884915
1.189681768 0.3544258475 -0.1251629442
0.9465200901 0.2041444033 -0.1299400032
1.559008718 0.2041358054 -0.1298048943
0.9063692093 0.06386609375 -0.1214637384
1.11289835 0.07646874338 0.2368118316
1.230427623 -0.06584890187 0.2450127602
1.1250844 0.2058719844 0.1277487427
0.9757316709 0.2057674229 0.1408175975
1.234740853 0.1076816991 -0.3773338497
0.9423919916 0.1302056462 0.002500652801
1.307900429 0.3189432919 0.014257906
1.332107902 0.3637795448 -0.1379605532
1.545316339 -0.1836313903 0.2748921216
1.141560793 0.02025646344 -0.377948761
1.198088408 -0.1004378721 -0.3843638003
1.457392097 -0.3067452013 -0.1298030615
1.579908967 -0.1344098002 -0.2470857203
1.393692374 -0.3407376111 -0.2523858845
0.9925704598 -0.07078426331 -0.3809494972
0.9109605551 -0.1435008198 -0.2568955719
0.8823785186 -0.06175342947 0.2755190432
1.107759356 -0.2652493715 -0.3863215744
1.433598161 0.1606344134 -0.3176989853
1.323204875 0.2314005941 -0.3767154813
1.393694043 0.339744091 -0.252387464
1.513170719 0.2599122524 -0.252387464
1.593002558 0.1404356062 -0.252387464
1.485204101 0.2051517814 0.007528511342
0.8806242943 -0.0003862817539 -0.2876097858
1.089953184 0.3385726213 -0.2503696978
1.097685695 0.1805505008 -0.3752900362
1.279925466 0.1956330538 0.1856170446
1.024204493 0.2782453895 0.2797117531
1.094741464 -0.02633588016 0.359169066
1.02127564 -0.1357502192 0.172901988
1.150694132 0.1877027154 0.3631866574
1.25400877 0.06956776232 0.3707508147
0.8926460147 0.04558301717 0.139582634
0.9150899649 -0.08285105228 0.01866657659
1.45169723 -0.0904860273 0.183638975
0.8871197701 0.1422901452 0.2529987395
1.251380801 0.3743831515 -0.3230782151
1.448141813 0.2943475842 0.1189035922
1.408147931 0.131603092 0.2450286895
1.255379677 -0.3677121699 -0.2590662837
1.612716913 0.003341748146 -0.2511408031
1.415024281 -0.2347097844 0.3929045498
1.576917887 0.06502569467 0.002569311066
1.6140064 0.07136286795 -0.1298047751
1.455141664 0.299726963 -0.1241403967
1.614007592 -0.07234994322 -0.1298047751
1.544225335 -0.09754872322 0.002575000981
0.8947383761 -0.07792990655 -0.1320438683
1.054858088 -0.311914295 -0.1265496314
1.519383192 0.2432414293 0.3863367438
1.487622976 0.007540776394 0.3756693006
1.615386844 0.1126664355 0.2205646038
1.44007194 0.3188075125 0.275698334
1.349395394 0.1794255376 0.3748820722
1.169570088 0.3542713225 0.1253354698
0.9663605094 0.09014400095 0.318944186
1.151343107 -0.2010613531 0.3283568025
1.35607779 -0.08318732679 0.3707523346
0.9927636385 -0.2043811679 0.3867866397
1.561081648 0.1972554475 0.1491530538
1.558960676 -0.2298330963 0.1220229268
1.615685821 -0.09288331121 0.1220226735
1.278325319 0.3606494665 0.3337435126
1.314012647 0.3798172474 0.1701941043
1.180632591 -0.3664267361 0.3194567859
CELLS 1041 5205
4 144 145 146 147
4 144 145 148 149
4 144 150 151 152
4 144 150 148 151
4 144 153 152 154
4 144 149 148 150
4 144 155 150 156
4 144 146 149 155
4 157 158 159 160
4 125 157 161 162
4 117 161 157 163
4 126 164 157 165
4 117 157 118 163
4 125 126 157 165
4 166 167 168 169
4 156 169 170 171
4 147 172 173 174
4 41 173 172 174
4 51 41 172 174
4 6 116 101 175
4 50 176 172 177
4 147 172 176 177
4 50 41 147 172
4 50 41 42 147
[...]
POINT_DATA 258
SCALARS KDE_TALLY_TAG double 1
LOOKUP_TABLE default
0.932226745 
0.9310089616 
0.8476712346 
0.8791318984 
0.8234252208 
0.8143406679 
0.7066575913 
0.6985411716 
0.6709091819 
0.6975792942 
0.6684127726 
0.7627253013 
0.791497682 
0.8507575961 
0.8979375108 
0.8891759117 
0.9400049314 
0.8841098467 
0.858724282 
0.827043467 
0.7976646913 
0.7659503208 
0.7058231119 
0.7093770916 
0.7037329118 
0.7274031296 
0.6825768222 
0.7377654846 
0.8157342419 
0.8117160325 
0.8546597941 
0.9155921088 
0.7504953764 
0.6937480859 
0.6651288369 
0.6368671095 
0.6162388539 
0.6199365978 
0.5976219648 
0.6039549508 
0.6546371807 
0.6643742042 
0.7564824116 
0.7708970149 
0.7443201901 
0.8301184339 
0.8083311211 
0.7899829723 
0.7667623632 
0.7405895257 
0.6780931857 
0.6483771572 
0.6370724643 
0.6065770465 
0.6358308282 
0.6754612787 
0.5897879011 
0.640137482 
0.7073379907 
0.7339438064 
0.7598785205 
0.8110323602 
0.7828170198 
0.8264588873 
0.8242164508 
0.734665783 
0.6897744805 
0.6492425115 
0.6617029696 
0.613194347 
0.6440830923 
0.6337268391 
0.6710231534 
0.7173841408 
0.7738991099 
0.784533263 
0.8077776557 
0.8090498771 
0.7610680798 
0.7937717651 
0.7672936669 
0.7868874918 
0.7399377574 
0.7082220394 
0.6796132212 
0.6394891667 
0.6206990542 
0.6167476991 
0.6558905209 
0.6919329719 
0.7104053069 
0.7062570799 
0.7662924244 
0.826592155 
0.7923818663 
0.7551777651 
0.830841226 
0.7862310293 
0.7267090253 
0.6969051487 
0.6589147952 
0.6626663206 
0.6100854066 
0.6386735395 
0.610017374 
0.6882154185 
0.7180021148 
0.7691691843 
0.7826779057 
0.7887636635 
0.8237688947 
0.8165093976 
0.7293987188 
0.7151170755 
0.6924577796 
0.6690091192 
0.6512213081 
0.6326706886 
0.644809874 
0.6627057742 
0.7166054564 
0.7032219587 
0.7146378964 
0.6934000352 
0.6710273936 
0.659891955 
0.6629552131 
0.6600591533 
0.7102168282 
0.7218269666 
0.6895481591 
0.6783129926 
0.6573240228 
0.6268559119 
0.6463457067 
0.6607388409 
0.6860051434 
0.7111722123 
0.7356866103 
0.6266477319 
0.6182308777 
0.6628787225 
0.6846893786 
0.6681340883 
0.617847339 
0.5877076279 
0.5606794736 
0.5377734705 
0.6103931145 
0.5527536069 
0.590083776 
0.6053260492 
0.6381022445 
0.6007317565 
0.6272954861 
0.5438762851 
0.5774424724 
0.5181903802 
0.5503222223 
0.5335996792 
0.5312256549 
0.5315967356 
0.5594924671 
0.5163875801 
0.5722641431 
0.5336648868 
0.5895221867 
0.5647843369 
0.5475003986 
0.5558215035 
0.5757797656 
0.5854408027 
0.5404650699 
0.5636031877 
0.5286184039 
0.5713783565 
0.5371054406 
0.5898407069 
0.5530352231 
0.5304554947 
0.5229013624 
0.5481552715 
0.6470311384 
0.551318047 
0.506681116 
0.5420497344 
0.5695188544 
0.5904859476 
0.5493135485 
0.6122388068 
0.5017799168 
0.6166886541 
0.5621903236 
0.5522131839 
0.5779137457 
0.6208379361 
0.5671925411 
0.5934275565 
0.5769539532 
0.5752956194 
0.5403690689 
0.5782098079 
0.552534238 
0.5400438164 
0.523582985 
0.5568475364 
0.6022006589 
0.6467242497 
0.6157293411 
0.5809053398 
0.5616227811 
0.5617170949 
0.5583225694 
0.5670330729 
0.5294419929 
0.5159461621 
0.6130977919 
0.5696824299 
0.5509864419 
0.5702451329 
0.595642525 
0.581005288 
0.5306949597 
0.6379368228 
0.5372422869 
0.6108590594 
0.6139952853 
0.5264905406 
0.6507462097 
0.5475341592 
0.5283861619 
0.5548311424 
0.5720918597 
0.5221812005 
0.5168812136 
0.5269162165 
0.5376379486 
0.5283593248 
0.5240194726 
0.494050075 
0.6177699778 
0.6217074601 
0.4919545354 
0.5169499701 
0.5255556912 
0.5430991901 
0.5209505178 
0.5425384261 
0.5883867081 
0.5768603889 
0.5741758411 
0.6036806132 
0.5468036327 
0.5172640724 
0.5398263095 
0.5352059202 
0.5346492407 
0.5731684551 
SCALARS KDE_ERROR_TAG double 1
LOOKUP_TABLE default
0.02907002881 
0.02881965112 
0.02882913396 
0.02933769115 
0.02981788549 
0.03142282988 
0.03113816041 
0.03262982335 
0.03340521628 
0.03258413916 
0.03227865534 
0.02979528072 
0.02933974171 
0.02943498334 
0.02993076054 
0.02825509243 
0.0297113058 
0.02840156116 
0.02973078548 
0.02920865394 
0.03123924225 
0.03112517219 
0.03107513924 
0.03203211722 
0.03244379389 
0.03283199856 
0.03234028651 
0.03121999265 
0.03101344911 
0.0292245693 
0.02931536504 
0.02979207155 
0.03191348803 
0.03120268455 
0.03264127569 
0.0331871961 
0.03535804454 
0.03483557681 
0.03521823035 
0.03495484964 
0.03294552047 
0.03128202336 
0.03034847376 
0.0296595407 
0.0302880962 
0.02989186888 
0.03039360569 
0.02975248214 
0.03080702003 
0.03056376885 
0.03132406677 
0.03216881371 
0.03285434383 
0.03402231616 
0.03457169144 
0.03336606965 
0.03374353043 
0.03208500696 
0.0310721375 
0.03022703058 
0.03026488902 
0.02989815909 
0.03043790126 
0.03007581737 
0.03035947015 
0.03010468808 
0.03288029243 
0.03194997302 
0.0333089936 
0.03360150118 
0.03405210192 
0.03356710097 
0.03197797413 
0.03146150308 
0.03209523714 
0.0296589811 
0.0290943753 
0.03013692427 
0.0305227933 
0.03020006359 
0.02968136328 
0.02951208475 
0.0315408097 
0.03203704806 
0.03238310535 
0.03219890963 
0.03338960104 
0.03370998402 
0.0327533302 
0.03202817623 
0.03097582702 
0.03138731197 
0.03001827423 
0.02949886613 
0.02981606088 
0.03038126081 
0.02976991255 
0.02982437128 
0.03029218144 
0.03191955062 
0.03206393821 
0.03302835067 
0.03392725185 
0.03363844107 
0.03359298976 
0.0321705563 
0.03060330369 
0.03040690008 
0.0295352985 
0.02954829107 
0.02949122902 
0.02995384568 
0.02946598247 
0.0299169999 
0.0295701518 
0.03075575604 
0.0326349709 
0.03199517643 
0.03188652866 
0.03138079339 
0.03088076784 
0.0299233327 
0.0293112664 
0.03064577082 
0.03150071261 
0.03227973765 
0.03214946516 
0.03122022688 
0.03127888556 
0.03032806713 
0.03135972001 
0.03233706559 
0.03049983637 
0.03186743549 
0.03159794828 
0.03242041599 
0.03070875126 
0.03104757611 
0.02999842161 
0.03223779909 
0.03347684207 
0.03303762689 
0.03166452988 
0.03104596142 
0.0377550802 
0.03607563617 
0.03964494415 
0.03769010204 
0.03519486597 
0.03764065865 
0.03759833377 
0.03430392066 
0.03362842206 
0.03978298526 
0.03385618613 
0.03933281834 
0.03783301275 
0.03792767711 
0.03573926642 
0.03917522783 
0.0359103474 
0.03625572553 
0.03749110722 
0.03588628835 
0.03660449401 
0.037888149 
0.03973504325 
0.0366827466 
0.04026979098 
0.03951210551 
0.03825046703 
0.03650726629 
0.03703373267 
0.03603955146 
0.03854036077 
0.03476752068 
0.04047583102 
0.03588680086 
0.03670862628 
0.03767469243 
0.04093421622 
0.04064026914 
0.03193517517 
0.04003819997 
0.04151154586 
0.03976003212 
0.03724122852 
0.03475298093 
0.03718151377 
0.03472927931 
0.03769796452 
0.03453461042 
0.03965487311 
0.03798361554 
0.03902201488 
0.03527244481 
0.03603150041 
0.03585140217 
0.03711055577 
0.03647518197 
0.03609569727 
0.03670572044 
0.03700530464 
0.03728867987 
0.03730530872 
0.03633482534 
0.03446880853 
0.03259865214 
0.03388039051 
0.03477952719 
0.038230287 
0.03648678832 
0.03641352693 
0.03572403716 
0.03690663482 
0.0394889886 
0.03337110061 
0.03481735984 
0.03679741393 
0.03810685038 
0.034633645 
0.03661855484 
0.03794953726 
0.03577833246 
0.0372146064 
0.03436924049 
0.03484105105 
0.04136511973 
0.0328013515 
0.03544847033 
0.03852427018 
0.03872561566 
0.03609733751 
0.03644476998 
0.0364653999 
0.03796712266 
0.03692360906 
0.03744997486 
0.03798267289 
0.04025856922 
0.03386859697 
0.03417528682 
0.03535171325 
0.03768145912 
0.03700685784 
0.03633486758 
0.03815012481 
0.03668908143 
0.03608141366 
0.03660906612 
0.03714090335 
0.03358104302 
0.03683514023 
0.03682673174 
0.03670966119 
0.0360017333 
0.03734899801 
0.03452257091 
