# vtk DataFile Version 3.0
MOAB 4.6.0pre
ASCII
DATASET UNSTRUCTURED_GRID
POINTS 1225 double
0 -0.5 0.5
0 0.5 0.5
0 -0.3333333333 0.5
0 -0.1666666667 0.5
0 0 0.5
0 0.1666666667 0.5
0 0.3333333333 0.5
0 0.5 -0.5
0 0.5 0.3333333333
0 0.5 0.1666666667
0 0.5 0
0 0.5 -0.1666666667
0 0.5 -0.3333333333
0 -0.5 -0.5
0 0.3333333333 -0.5
0 0.1666666667 -0.5
0 0 -0.5
0 -0.1666666667 -0.5
0 -0.3333333333 -0.5
0 -0.5 -0.3333333333
0 -0.5 -0.1666666667
0 -0.5 0
0 -0.5 0.1666666667
0 -0.5 0.3333333333
0 -0.3333333333 0.3333333333
0 -0.1666666667 0.3333333333
0 -6.938893904e-18 0.3333333333
0 0.1666666667 0.3333333333
0 0.3333333333 0.3333333333
0 -0.3333333333 0.1666666667
0 -0.1666666667 0.1666666667
0 -1.387778781e-17 0.1666666667
0 0.1666666667 0.1666666667
0 0.3333333333 0.1666666667
0 -0.3333333333 0
0 -0.1666666667 0
0 0 0
0 0.1666666667 0
0 0.3333333333 0
0 -0.3333333333 -0.1666666667
0 -0.1666666667 -0.1666666667
0 0 -0.1666666667
0 0.1666666667 -0.1666666667
0 0.3333333333 -0.1666666667
0 -0.3333333333 -0.3333333333
0 -0.1666666667 -0.3333333333
0 0 -0.3333333333
0 0.1666666667 -0.3333333333
0 0.3333333333 -0.3333333333
5 -0.5 -0.5
0.2083333333 -0.5 -0.5
0.4166666667 -0.5 -0.5
0.625 -0.5 -0.5
0.8333333333 -0.5 -0.5
1.041666667 -0.5 -0.5
1.25 -0.5 -0.5
1.458333333 -0.5 -0.5
1.666666667 -0.5 -0.5
1.875 -0.5 -0.5
2.083333333 -0.5 -0.5
2.291666667 -0.5 -0.5
2.5 -0.5 -0.5
2.708333333 -0.5 -0.5
2.916666667 -0.5 -0.5
3.125 -0.5 -0.5
3.333333333 -0.5 -0.5
3.541666667 -0.5 -0.5
3.75 -0.5 -0.5
3.958333333 -0.5 -0.5
4.166666667 -0.5 -0.5
4.375 -0.5 -0.5
4.583333333 -0.5 -0.5
4.791666667 -0.5 -0.5
5 -0.5 0.5
5 -0.5 0.3333333333
5 -0.5 0.1666666667
5 -0.5 0
5 -0.5 -0.1666666667
5 -0.5 -0.3333333333
4.791666667 -0.5 0.5
4.583333333 -0.5 0.5
4.375 -0.5 0.5
4.166666667 -0.5 0.5
3.958333333 -0.5 0.5
3.75 -0.5 0.5
3.541666667 -0.5 0.5
3.333333333 -0.5 0.5
3.125 -0.5 0.5
2.916666667 -0.5 0.5
2.708333333 -0.5 0.5
2.5 -0.5 0.5
2.291666667 -0.5 0.5
2.083333333 -0.5 0.5
1.875 -0.5 0.5
1.666666667 -0.5 0.5
1.458333333 -0.5 0.5
1.25 -0.5 0.5
1.041666667 -0.5 0.5
0.8333333333 -0.5 0.5
0.625 -0.5 0.5
0.4166666667 -0.5 0.5
0.2083333333 -0.5 0.5
0.2083333333 -0.5 -0.3333333333
0.4166666667 -0.5 -0.3333333333
0.625 -0.5 -0.3333333333
0.8333333333 -0.5 -0.3333333333
1.041666667 -0.5 -0.3333333333
1.25 -0.5 -0.3333333333
1.458333333 -0.5 -0.3333333333
1.666666667 -0.5 -0.3333333333
1.875 -0.5 -0.3333333333
2.083333333 -0.5 -0.3333333333
2.291666667 -0.5 -0.3333333333
2.5 -0.5 -0.3333333333
2.708333333 -0.5 -0.3333333333
2.916666667 -0.5 -0.3333333333
3.125 -0.5 -0.3333333333
3.333333333 -0.5 -0.3333333333
3.541666667 -0.5 -0.3333333333
3.75 -0.5 -0.3333333333
3.958333333 -0.5 -0.3333333333
4.166666667 -0.5 -0.3333333333
4.375 -0.5 -0.3333333333
4.583333333 -0.5 -0.3333333333
4.791666667 -0.5 -0.3333333333
0.2083333333 -0.5 -0.1666666667
0.4166666667 -0.5 -0.1666666667
0.625 -0.5 -0.1666666667
0.8333333333 -0.5 -0.1666666667
1.041666667 -0.5 -0.1666666667
1.25 -0.5 -0.1666666667
1.458333333 -0.5 -0.1666666667
1.666666667 -0.5 -0.1666666667
1.875 -0.5 -0.1666666667
2.083333333 -0.5 -0.1666666667
2.291666667 -0.5 -0.1666666667
2.5 -0.5 -0.1666666667
2.708333333 -0.5 -0.1666666667
2.916666667 -0.5 -0.1666666667
3.125 -0.5 -0.1666666667
3.333333333 -0.5 -0.1666666667
3.541666667 -0.5 -0.1666666667
3.75 -0.5 -0.1666666667
3.958333333 -0.5 -0.1666666667
4.166666667 -0.5 -0.1666666667
4.375 -0.5 -0.1666666667
4.583333333 -0.5 -0.1666666667
4.791666667 -0.5 -0.1666666667
0.2083333333 -0.5 0
0.4166666667 -0.5 0
0.625 -0.5 0
0.8333333333 -0.5 0
1.041666667 -0.5 0
1.25 -0.5 0
1.458333333 -0.5 0
1.666666667 -0.5 0
1.875 -0.5 0
2.083333333 -0.5 0
2.291666667 -0.5 0
2.5 -0.5 0
2.708333333 -0.5 0
2.916666667 -0.5 0
3.125 -0.5 0
3.333333333 -0.5 0
3.541666667 -0.5 0
3.75 -0.5 0
3.958333333 -0.5 0
4.166666667 -0.5 0
4.375 -0.5 0
4.583333333 -0.5 0
4.791666667 -0.5 0
0.2083333333 -0.5 0.1666666667
0.4166666667 -0.5 0.1666666667
0.625 -0.5 0.1666666667
0.8333333333 -0.5 0.1666666667
1.041666667 -0.5 0.1666666667
1.25 -0.5 0.1666666667
1.458333333 -0.5 0.1666666667
1.666666667 -0.5 0.1666666667
1.875 -0.5 0.1666666667
2.083333333 -0.5 0.1666666667
2.291666667 -0.5 0.1666666667
2.5 -0.5 0.1666666667
2.708333333 -0.5 0.1666666667
2.916666667 -0.5 0.1666666667
3.125 -0.5 0.1666666667
3.333333333 -0.5 0.1666666667
3.541666667 -0.5 0.1666666667
3.75 -0.5 0.1666666667
3.958333333 -0.5 0.1666666667
4.166666667 -0.5 0.1666666667
4.375 -0.5 0.1666666667
4.583333333 -0.5 0.1666666667
4.791666667 -0.5 0.1666666667
0.2083333333 -0.5 0.3333333333
0.4166666667 -0.5 0.3333333333
0.625 -0.5 0.3333333333
0.8333333333 -0.5 0.3333333333
1.041666667 -0.5 0.3333333333
1.25 -0.5 0.3333333333
1.458333333 -0.5 0.3333333333
1.666666667 -0.5 0.3333333333
1.875 -0.5 0.3333333333
2.083333333 -0.5 0.3333333333
2.291666667 -0.5 0.3333333333
2.5 -0.5 0.3333333333
2.708333333 -0.5 0.3333333333
2.916666667 -0.5 0.3333333333
3.125 -0.5 0.3333333333
3.333333333 -0.5 0.3333333333
3.541666667 -0.5 0.3333333333
3.75 -0.5 0.3333333333
3.958333333 -0.5 0.3333333333
4.166666667 -0.5 0.3333333333
4.375 -0.5 0.3333333333
4.583333333 -0.5 0.3333333333
4.791666667 -0.5 0.3333333333
5 0.5 -0.5
4.791666667 0.5 -0.5
4.583333333 0.5 -0.5
4.375 0.5 -0.5
4.166666667 0.5 -0.5
3.958333333 0.5 -0.5
3.75 0.5 -0.5
3.541666667 0.5 -0.5
3.333333333 0.5 -0.5
3.125 0.5 -0.5
2.916666667 0.5 -0.5
2.708333333 0.5 -0.5
2.5 0.5 -0.5
2.291666667 0.5 -0.5
2.083333333 0.5 -0.5
1.875 0.5 -0.5
1.666666667 0.5 -0.5
1.458333333 0.5 -0.5
1.25 0.5 -0.5
1.041666667 0.5 -0.5
0.8333333333 0.5 -0.5
0.625 0.5 -0.5
0.4166666667 0.5 -0.5
0.2083333333 0.5 -0.5
5 -0.3333333333 -0.5
5 -0.1666666667 -0.5
5 0 -0.5
5 0.1666666667 -0.5
5 0.3333333333 -0.5
0.2083333333 0.3333333333 -0.5
0.4166666667 0.3333333333 -0.5
0.625 0.3333333333 -0.5
0.8333333333 0.3333333333 -0.5
1.041666667 0.3333333333 -0.5
1.25 0.3333333333 -0.5
1.458333333 0.3333333333 -0.5
1.666666667 0.3333333333 -0.5
1.875 0.3333333333 -0.5
2.083333333 0.3333333333 -0.5
2.291666667 0.3333333333 -0.5
2.5 0.3333333333 -0.5
2.708333333 0.3333333333 -0.5
2.916666667 0.3333333333 -0.5
3.125 0.3333333333 -0.5
3.333333333 0.3333333333 -0.5
3.541666667 0.3333333333 -0.5
3.75 0.3333333333 -0.5
3.958333333 0.3333333333 -0.5
4.166666667 0.3333333333 -0.5
4.375 0.3333333333 -0.5
4.583333333 0.3333333333 -0.5
4.791666667 0.3333333333 -0.5
0.2083333333 0.1666666667 -0.5
0.4166666667 0.1666666667 -0.5
0.625 0.1666666667 -0.5
0.8333333333 0.1666666667 -0.5
1.041666667 0.1666666667 -0.5
1.25 0.1666666667 -0.5
1.458333333 0.1666666667 -0.5
1.666666667 0.1666666667 -0.5
1.875 0.1666666667 -0.5
2.083333333 0.1666666667 -0.5
2.291666667 0.1666666667 -0.5
2.5 0.1666666667 -0.5
2.708333333 0.1666666667 -0.5
2.916666667 0.1666666667 -0.5
3.125 0.1666666667 -0.5
3.333333333 0.1666666667 -0.5
3.541666667 0.1666666667 -0.5
3.75 0.1666666667 -0.5
3.958333333 0.1666666667 -0.5
4.166666667 0.1666666667 -0.5
4.375 0.1666666667 -0.5
4.583333333 0.1666666667 -0.5
4.791666667 0.1666666667 -0.5
0.2083333333 0 -0.5
0.4166666667 0 -0.5
0.625 0 -0.5
0.8333333333 0 -0.5
1.041666667 0 -0.5
1.25 0 -0.5
1.458333333 0 -0.5
1.666666667 0 -0.5
1.875 0 -0.5
2.083333333 0 -0.5
2.291666667 0 -0.5
2.5 0 -0.5
2.708333333 0 -0.5
2.916666667 0 -0.5
3.125 0 -0.5
3.333333333 0 -0.5
3.541666667 0 -0.5
3.75 0 -0.5
3.958333333 0 -0.5
4.166666667 0 -0.5
4.375 0 -0.5
4.583333333 0 -0.5
4.791666667 0 -0.5
0.2083333333 -0.1666666667 -0.5
0.4166666667 -0.1666666667 -0.5
0.625 -0.1666666667 -0.5
0.8333333333 -0.1666666667 -0.5
1.041666667 -0.1666666667 -0.5
1.25 -0.1666666667 -0.5
1.458333333 -0.1666666667 -0.5
1.666666667 -0.1666666667 -0.5
1.875 -0.1666666667 -0.5
2.083333333 -0.1666666667 -0.5
2.291666667 -0.1666666667 -0.5
2.5 -0.1666666667 -0.5
2.708333333 -0.1666666667 -0.5
2.916666667 -0.1666666667 -0.5
3.125 -0.1666666667 -0.5
3.333333333 -0.1666666667 -0.5
3.541666667 -0.1666666667 -0.5
3.75 -0.1666666667 -0.5
3.958333333 -0.1666666667 -0.5
4.166666667 -0.1666666667 -0.5
4.375 -0.1666666667 -0.5
4.583333333 -0.1666666667 -0.5
4.791666667 -0.1666666667 -0.5
0.2083333333 -0.3333333333 -0.5
0.4166666667 -0.3333333333 -0.5
0.625 -0.3333333333 -0.5
0.8333333333 -0.3333333333 -0.5
1.041666667 -0.3333333333 -0.5
1.25 -0.3333333333 -0.5
1.458333333 -0.3333333333 -0.5
1.666666667 -0.3333333333 -0.5
1.875 -0.3333333333 -0.5
2.083333333 -0.3333333333 -0.5
2.291666667 -0.3333333333 -0.5
2.5 -0.3333333333 -0.5
2.708333333 -0.3333333333 -0.5
2.916666667 -0.3333333333 -0.5
3.125 -0.3333333333 -0.5
3.333333333 -0.3333333333 -0.5
3.541666667 -0.3333333333 -0.5
3.75 -0.3333333333 -0.5
3.958333333 -0.3333333333 -0.5
4.166666667 -0.3333333333 -0.5
4.375 -0.3333333333 -0.5
4.583333333 -0.3333333333 -0.5
4.791666667 -0.3333333333 -0.5
5 0.5 0.5
5 0.3333333333 0.5
5 0.1666666667 0.5
5 0 0.5
5 -0.1666666667 0.5
5 -0.3333333333 0.5
5 0.5 -0.3333333333
5 0.5 -0.1666666667
5 0.5 0
5 0.5 0.1666666667
5 0.5 0.3333333333
5 0.3333333333 0.3333333333
5 0.1666666667 0.3333333333
5 6.938893904e-18 0.3333333333
5 -0.1666666667 0.3333333333
5 -0.3333333333 0.3333333333
5 0.3333333333 0.1666666667
5 0.1666666667 0.1666666667
5 1.387778781e-17 0.1666666667
5 -0.1666666667 0.1666666667
5 -0.3333333333 0.1666666667
5 0.3333333333 0
5 0.1666666667 0
5 0 0
5 -0.1666666667 0
5 -0.3333333333 0
5 0.3333333333 -0.1666666667
5 0.1666666667 -0.1666666667
5 0 -0.1666666667
5 -0.1666666667 -0.1666666667
5 -0.3333333333 -0.1666666667
5 0.3333333333 -0.3333333333
5 0.1666666667 -0.3333333333
5 0 -0.3333333333
5 -0.1666666667 -0.3333333333
5 -0.3333333333 -0.3333333333
0.2083333333 0.5 0.5
0.4166666667 0.5 0.5
0.625 0.5 0.5
0.8333333333 0.5 0.5
1.041666667 0.5 0.5
1.25 0.5 0.5
1.458333333 0.5 0.5
1.666666667 0.5 0.5
1.875 0.5 0.5
2.083333333 0.5 0.5
2.291666667 0.5 0.5
2.5 0.5 0.5
2.708333333 0.5 0.5
2.916666667 0.5 0.5
3.125 0.5 0.5
3.333333333 0.5 0.5
3.541666667 0.5 0.5
3.75 0.5 0.5
3.958333333 0.5 0.5
4.166666667 0.5 0.5
4.375 0.5 0.5
4.583333333 0.5 0.5
4.791666667 0.5 0.5
[...]
POINT_DATA 1225
SCALARS KDE_TALLY_TAG double 1
LOOKUP_TABLE default
2.99271639 
3.051783163 
2.956940401 
3.014820664 
2.967653847 
3.026864016 
2.982233823 
3.018965164 
3.048220253 
2.966591713 
3.008989149 
3.067639279 
2.996349268 
3.069783569 
2.985579331 
3.010035388 
3.034900344 
3.054589962 
3.018445809 
3.000862069 
3.023917345 
3.034444261 
3.024360472 
2.978982305 
3.032588175 
2.990960021 
2.988444571 
3.081980345 
2.979486324 
3.016731299 
3.022248599 
3.026543666 
3.011058509 
2.989578058 
2.911555058 
3.030725994 
3.024642502 
2.990155776 
3.055862644 
3.089447881 
3.041782223 
3.036893867 
2.999278411 
2.949841507 
3.040651693 
2.95856574 
3.039849941 
3.004616502 
3.015845864 
2.129691633 
3.009813019 
2.972904057 
2.910599396 
2.897590531 
2.856715438 
2.786841724 
2.725709662 
2.698507594 
2.652141334 
2.556777438 
2.490174481 
2.546325447 
2.461818127 
2.371260602 
2.411646946 
2.301232274 
2.290142638 
2.27255091 
2.21428334 
2.217601341 
2.191426182 
2.219520667 
2.153024591 
2.254827526 
2.182832268 
2.160618787 
2.149754057 
2.163326785 
2.111253227 
2.188104812 
2.139304279 
2.174092873 
2.227780606 
2.20675755 
2.283096706 
2.323072191 
2.373171772 
2.365657234 
2.388434475 
2.370678278 
2.497332942 
2.638630947 
2.609852286 
2.669949488 
2.703903635 
2.74160918 
2.807652895 
2.849431878 
2.883240211 
2.966356045 
2.955013888 
2.978739562 
3.040148901 
2.956093461 
2.956111612 
2.85511289 
2.785540625 
2.847648855 
2.743037863 
2.658391911 
2.688372753 
2.622275331 
2.48678891 
2.496723273 
2.482527092 
2.449097328 
2.370194353 
2.297419683 
2.338845666 
2.282728673 
2.267900725 
2.271245766 
2.220474545 
2.104387865 
2.166092402 
3.007782238 
2.961305718 
2.904916543 
2.868705901 
2.749757441 
2.782522476 
2.761719451 
2.607111723 
2.640107896 
2.641523915 
2.524649463 
2.510666878 
2.509015035 
2.426581802 
2.401343803 
2.3266825 
2.323605686 
2.240742193 
2.290576606 
2.233766524 
2.150173804 
2.221149601 
2.170908462 
3.008185454 
3.017290408 
2.94441802 
2.930710758 
2.827606476 
2.768598656 
2.756192335 
2.65751889 
2.558047064 
2.516495953 
2.49688971 
2.44238073 
2.440482913 
2.375250229 
2.357963978 
2.350377834 
2.317598057 
2.234229005 
2.228220466 
2.182656545 
2.200838346 
2.123943711 
2.182901874 
3.00240913 
3.016507207 
2.959905733 
2.856037271 
2.831093451 
2.795302648 
2.732788286 
2.670022548 
2.618372671 
2.556145301 
2.522102461 
2.506824498 
2.454406724 
2.355236394 
2.293043873 
2.346082727 
2.296622397 
2.312615961 
2.251518914 
2.213744365 
2.2002148 
2.198550829 
2.15119574 
3.027196019 
3.005576167 
2.922147831 
2.921250854 
2.852922598 
2.792479779 
2.793276807 
2.667182817 
2.605850927 
2.571360796 
2.480306916 
2.443879862 
2.467790576 
2.400953691 
2.37545098 
2.314770056 
2.328113053 
2.25663421 
2.209262871 
2.149189524 
2.177745059 
2.180830487 
2.145106019 
2.171796069 
2.167245401 
2.177524963 
2.16005289 
2.200263883 
2.246912348 
2.193013623 
2.263799865 
2.339225841 
2.421346798 
2.387048218 
2.3716331 
2.463572595 
2.568184989 
2.639550885 
2.677016464 
2.737212254 
2.746192598 
2.781149341 
2.812813143 
2.9021488 
2.968961826 
2.970837152 
2.97846392 
2.160953502 
2.196282138 
2.179921099 
2.151969414 
2.209020262 
2.988218457 
2.984661102 
2.963150011 
2.884766152 
2.842761924 
2.777745709 
2.801298904 
2.684552127 
2.612137384 
2.590205362 
2.507716562 
2.493609638 
2.4381396 
2.365792289 
2.386669374 
2.362282856 
2.302248827 
2.255583777 
2.231731928 
2.174013462 
2.125715749 
2.205995181 
2.114777302 
2.977510786 
2.939529132 
2.888634008 
2.88535001 
2.755241536 
2.854380539 
2.821468478 
2.709706299 
2.634902301 
2.656506125 
2.544355294 
2.462861766 
2.45777268 
2.39488453 
2.430031126 
2.364113492 
2.299536911 
2.315569595 
2.171718581 
2.19580347 
2.190387671 
2.166980797 
2.15392216 
2.950511721 
2.999453257 
2.888362163 
2.936360597 
2.907649458 
2.813186013 
2.71993719 
2.716114256 
2.672286583 
2.538439183 
2.537542398 
2.466159863 
2.449769685 
2.375067711 
2.374958139 
2.320811442 
2.278445718 
2.237760471 
2.247442731 
2.161379076 
2.147940041 
2.19778698 
2.121941412 
3.044205891 
2.9762233 
2.885241361 
2.951948517 
2.816933125 
2.835147763 
2.761076979 
2.632390352 
2.694357279 
2.56576068 
2.47552579 
2.494484758 
2.462559978 
2.349799729 
2.378735142 
2.340404598 
2.238335753 
2.211798824 
2.287658471 
2.277270964 
2.194242998 
2.130533475 
2.14654746 
3.008262786 
2.96232223 
2.983869366 
2.932860741 
2.786230082 
2.860984237 
2.730332399 
2.687093526 
2.669968727 
2.570079839 
2.565489092 
2.428626192 
2.420759247 
2.439716013 
2.385327334 
2.307863516 
2.297156771 
2.301921363 
2.249861833 
2.192919955 
2.225842511 
2.173038218 
2.184904544 
2.135293934 
2.181230798 
2.130438459 
2.123132679 
2.152011666 
2.142956453 
2.149138505 
2.165283921 
2.110799037 
2.175214684 
2.161414705 
2.146619938 
2.138250774 
2.087717492 
2.207158783 
2.181952886 
2.14091939 
2.119130093 
2.112535178 
2.126664627 
2.141332776 
2.154402876 
2.170370004 
2.108342069 
2.15949589 
2.173480992 
2.180171992 
2.190972233 
2.18734391 
2.130334854 
2.180082225 
2.118553218 
2.162118065 
2.188471628 
2.213267941 
2.164035077 
3.042462034 
2.970093114 
2.925268117 
2.915317293 
2.888797945 
2.728374018 
2.72403678 
2.671736323 
2.639358522 
2.5177139 
2.53079116 
2.457498273 
2.498252543 
2.39550392 
2.345879653 
2.306813998 
2.28194682 
2.244772881 
2.208901604 
2.191864974 
2.143711283 
2.185229306 
2.143587614 
2.974549821 
2.950213814 
2.950107597 
2.857638593 
2.91278652 
2.896736036 
2.735460101 
2.679282766 
2.570938831 
2.565391724 
2.527934742 
2.452510355 
2.46397823 
2.401122002 
2.386758516 
2.345159061 
2.266061888 
2.246390807 
2.230160422 
2.186746762 
2.16762773 
2.11743789 
2.153588566 
3.01209429 
2.851036478 
2.937418992 
2.844867765 
2.798872402 
2.812431298 
2.753070997 
2.670071248 
2.616031384 
2.549141512 
2.554087748 
2.41910696 
2.444705365 
2.427048296 
2.402392613 
2.301854823 
2.268898977 
2.276376857 
2.219659648 
2.228153865 
2.159176253 
2.161546448 
2.154148434 
3.030054187 
2.87224994 
2.993218781 
2.886629997 
2.783208381 
2.777009721 
2.753000591 
2.680251194 
2.6484255 
2.533587825 
2.494791252 
2.460722805 
2.448425761 
2.495645548 
2.398208454 
2.302480327 
2.278651755 
2.211945054 
2.269599254 
2.196120615 
2.238361409 
2.120487326 
2.124477197 
2.993413292 
2.991770147 
2.883541098 
2.8049821 
2.840479246 
2.722326846 
2.771189166 
2.715606055 
2.70517494 
2.592186249 
2.537859601 
2.505748255 
2.413820369 
2.352898348 
2.317141943 
2.293582406 
2.288127948 
2.260918116 
2.239589698 
2.264398991 
2.207806857 
2.164694884 
2.156396184 
2.923552652 
2.912204392 
2.979492898 
2.894614087 
2.862951441 
2.751997064 
2.764305937 
2.680624525 
2.592428312 
2.636166392 
2.549424217 
2.522402764 
2.405709368 
2.347457296 
2.32695631 
2.267395217 
2.241013839 
2.267830565 
2.194534845 
2.221587979 
2.227423001 
2.155904261 
2.111121078 
2.990774234 
2.952595316 
2.931077569 
2.92000674 
2.859636742 
2.820175491 
2.7043891 
2.730228072 
2.657151233 
2.556131909 
2.559975369 
2.487195226 
2.439747605 
2.419459934 
2.397817245 
2.296712788 
2.302459763 
2.226949557 
2.271846781 
2.182888423 
2.199284534 
2.209194018 
2.14179044 
2.967984265 
2.908290591 
2.940262917 
2.881263015 
2.813997625 
2.766882204 
2.727869012 
2.704177786 
2.595027491 
2.538362713 
2.508890063 
2.491072406 
2.437207603 
2.367770524 
2.341900618 
2.306680948 
2.292918882 
2.255722633 
2.267106466 
2.228874389 
2.218209145 
2.200306212 
2.139935432 
2.993900358 
2.986236544 
2.89773224 
2.932004808 
2.80973553 
2.709341666 
2.684995606 
2.714234655 
2.669641096 
2.560586059 
2.582275291 
2.496157409 
2.446350664 
2.415153733 
2.321461219 
2.30916053 
2.316231089 
2.238436184 
2.253948723 
2.12821786 
2.185985506 
2.15982517 
2.152195324 
3.008340734 
3.001750388 
2.931880966 
2.85114233 
2.863987166 
2.813779113 
2.699651633 
2.679689917 
2.641494618 
2.61367124 
2.523734692 
2.482811664 
2.450768401 
2.424450374 
2.329423283 
2.268246608 
2.275260124 
2.266635977 
2.24404869 
2.176822023 
2.180684996 
2.24314172 
2.188648552 
3.027943997 
3.067859491 
2.937940787 
2.833118779 
2.79857223 
2.76452418 
2.773105359 
2.761929348 
2.605801365 
2.55538181 
2.599139026 
2.472131314 
2.469201888 
2.392798356 
2.371175864 
2.297376241 
2.224947759 
2.320924293 
2.200484305 
2.166176066 
2.141630054 
2.188205242 
2.202735163 
3.00282663 
2.975021673 
2.810190854 
2.927032565 
2.843294669 
2.853998682 
2.763041612 
2.650695349 
2.665660366 
2.564662802 
2.541433521 
2.441179571 
2.479431324 
2.405434031 
2.399321602 
2.351290501 
2.29064465 
2.252387228 
2.228398687 
2.231235811 
2.224024152 
2.150593913 
2.171037075 
3.007733492 
2.971501057 
2.957196381 
2.888798421 
2.834775621 
2.795041359 
2.697600936 
2.651893708 
2.636993138 
2.623648386 
2.529700873 
2.469050015 
2.49263795 
2.426234725 
2.439196633 
2.352703642 
2.263347042 
2.265486628 
2.270109664 
2.204835314 
2.159120514 
2.149300725 
2.191608342 
3.022289395 
2.923297183 
2.870052337 
2.861178394 
2.875958328 
2.781098439 
2.70244398 
2.721925198 
2.68753475 
2.58541618 
2.515829832 
2.448673157 
2.423290652 
2.409347612 
2.350669111 
2.241057673 
2.251762085 
2.263956485 
2.227952415 
2.096422185 
2.115473372 
2.168442136 
2.20655332 
2.950037153 
3.031187043 
2.845428765 
2.921177607 
2.881670423 
2.783183571 
2.745675903 
2.679561813 
2.614733905 
2.65372535 
2.490490935 
2.499592527 
2.358716247 
2.385592633 
2.392201795 
2.377528536 
2.281782601 
2.261885911 
2.205705093 
2.208133387 
2.169499489 
2.180247785 
2.155934815 
3.023527542 
3.029616405 
2.895825125 
2.84181237 
2.798419624 
2.723199984 
2.754353373 
2.704515044 
2.628672994 
2.593824851 
2.546303425 
2.475823844 
2.500427773 
2.409800141 
2.328732027 
2.326223524 
2.256093815 
2.236463917 
2.202356957 
2.204140319 
2.160055313 
2.187659304 
2.16451325 
3.022843982 
3.100406266 
2.95467782 
2.810779832 
2.842629355 
2.866669637 
2.751522172 
2.673148088 
2.636088553 
2.604870613 
2.51787832 
2.509240974 
2.495408671 
2.40851334 
2.367242508 
2.352029177 
2.305917905 
2.270871688 
2.220737257 
2.195719048 
2.225614562 
2.154459029 
2.178072643 
2.964716421 
2.981093126 
2.933804101 
2.837215806 
2.912318129 
2.879558359 
2.709620383 
2.715981802 
2.668845723 
2.571598791 
2.560236549 
2.448053773 
2.409788076 
2.452075334 
2.384268154 
2.321203498 
2.229025523 
2.231248969 
2.261436079 
2.256271951 
2.188191667 
2.176531642 
2.176739706 
2.952003375 
2.959355854 
2.89915205 
2.867433528 
2.822195779 
2.802045798 
2.681687054 
2.663163504 
2.621650147 
2.578378472 
2.583670112 
2.50809338 
2.437734164 
2.350881701 
2.344778255 
2.369856238 
2.256753118 
2.315372953 
2.221131235 
2.197839891 
2.155281913 
2.175111372 
2.152188044 
3.010594827 
2.948419901 
2.943373153 
2.879855767 
2.824365286 
2.796056118 
2.723319353 
2.597096997 
2.628060321 
2.58525976 
2.534207674 
2.502016062 
2.451063605 
2.367807919 
2.314215282 
2.244697303 
2.26307327 
2.300754182 
2.289566949 
2.195307991 
2.149071936 
2.169604011 
2.160428055 
2.997952344 
2.978121214 
3.006079695 
2.888087163 
2.878346642 
2.779349141 
2.752022121 
2.739789556 
2.655906605 
2.590553227 
2.45752345 
2.529458467 
2.470758985 
2.385798944 
2.316367759 
2.32044927 
2.266152902 
2.284235876 
2.24362198 
2.164109167 
2.187817757 
2.187396177 
2.21162376 
2.998240053 
2.978294594 
2.883669535 
2.807841822 
2.875453839 
2.783699166 
2.73502578 
2.705994317 
2.628598285 
2.612663352 
2.584260183 
2.583990386 
2.398749826 
2.378273808 
2.30474828 
2.279528517 
2.243223166 
2.240351573 
2.249362327 
2.179774081 
2.178143821 
2.199139809 
2.206288649 
2.966927954 
2.915520826 
3.001166723 
2.856320886 
2.804833295 
2.758839345 
2.791490062 
2.668636845 
2.611068867 
2.533609536 
2.494454727 
2.474798259 
2.456866756 
2.419611397 
2.330606034 
2.315044468 
2.287724764 
2.256879472 
2.24026446 
2.232361158 
2.129618669 
2.177271345 
2.183955202 
3.019300537 
3.002862244 
2.938450117 
2.853784465 
2.821033743 
2.780100472 
2.788084051 
2.695459266 
2.665776874 
2.599919385 
2.584449486 
2.462938237 
2.4575687 
2.462091318 
2.334151368 
2.294095708 
2.276210548 
2.25279591 
2.263951337 
2.226501786 
2.16735615 
2.162663624 
2.149012182 
3.01224194 
2.974240619 
2.901260145 
2.916472075 
2.845937399 
2.737336358 
2.814787051 
2.689306597 
2.588504849 
2.534604639 
2.539825977 
2.528319556 
2.432357689 
2.37172732 
2.331637763 
2.319150512 
2.325831523 
2.263032192 
2.196291749 
2.206634732 
2.196175376 
2.227992663 
2.103254043 
2.999922358 
2.992571265 
2.98276953 
2.885848916 
2.813769719 
2.781928428 
2.752843503 
2.692077338 
2.603932143 
2.534825249 
2.597076103 
2.512928194 
2.426566923 
2.42005944 
2.397265448 
2.282804153 
2.222507028 
2.22412336 
2.24504247 
2.226431971 
2.176706689 
2.168632246 
2.16845077 
2.950779687 
2.983872558 
2.877739094 
2.847881633 
2.845807835 
2.775178063 
2.726759186 
2.634924138 
2.644749257 
2.580152238 
2.518978742 
2.558704517 
2.410625706 
2.381629152 
2.37689357 
2.299040068 
2.336725995 
2.290809039 
2.289808775 
2.228081406 
2.171076147 
2.182850777 
2.195489544 
3.046627549 
2.971055065 
2.875555774 
2.823825217 
2.796235377 
2.801020679 
2.705356305 
2.690318339 
2.62294207 
2.67819875 
2.528903665 
2.495085401 
2.457064686 
2.383512625 
2.367199341 
2.259759284 
2.305073103 
2.250760505 
2.185167339 
2.217163229 
2.134414682 
2.186006706 
2.172946248 
3.010623306 
2.966650512 
2.913085558 
2.981567266 
2.8352482 
2.865577081 
2.75056268 
2.645758283 
2.665223443 
2.586521201 
2.587351282 
2.431857334 
2.465487667 
2.33113567 
2.328308905 
2.303008978 
2.254685916 
2.219381687 
2.18540452 
2.15494239 
2.165242443 
2.191189949 
2.11883731 
3.047804096 
3.031900816 
2.912867653 
2.910702068 
2.790112479 
2.755015423 
2.709231146 
2.645033528 
2.689694201 
2.525129626 
2.615727391 
2.559429926 
2.436854454 
2.39122045 
2.379144643 
2.282125648 
2.249758963 
2.31502963 
2.224121661 
2.253434466 
2.194596427 
2.212986222 
2.1350466 
2.985893988 
2.972597748 
2.943769015 
2.80318386 
2.867372088 
2.824626144 
2.79093174 
2.686486188 
2.689276286 
2.540610388 
2.54955379 
2.510981658 
2.499181396 
2.433241236 
2.339046997 
2.322534807 
2.351716221 
2.222220679 
2.271150743 
2.218859265 
2.228890587 
2.131256141 
2.139094501 
3.003624911 
2.96591495 
2.883486804 
2.840800886 
2.831776316 
2.802449077 
2.77547918 
2.646499325 
2.602833235 
2.602180588 
2.527582558 
2.471865376 
2.476098167 
2.375937898 
2.341369726 
2.291605417 
2.280763213 
2.247445206 
2.277837775 
2.267070221 
2.143376822 
2.165614549 
2.10877315 
3.008395471 
3.021813713 
2.919401941 
2.821152489 
2.830896372 
2.83862623 
2.753343627 
2.633950107 
2.666004245 
2.632644708 
2.540877354 
2.470613432 
2.449008326 
2.40307369 
2.385382037 
2.261636183 
2.264740475 
2.265710288 
2.262772223 
2.192838134 
2.232609199 
2.230265639 
2.138434787 
3.056897753 
2.852826052 
2.903082209 
2.897653188 
2.794061308 
2.800531151 
2.718835422 
2.699079938 
2.584353147 
2.597733436 
2.536664132 
2.496059939 
2.493325361 
2.468236188 
2.350942332 
2.316529952 
2.259497342 
2.23631789 
2.25764936 
2.242501026 
2.179860242 
2.170225978 
2.160852743 
2.996590157 
3.075063218 
2.92179222 
2.851618747 
2.799630305 
2.80563364 
2.741013865 
2.719172342 
2.661986965 
2.60508144 
2.513480737 
2.484891114 
2.46996553 
2.368996065 
2.378068734 
2.342349777 
2.310547379 
2.293136445 
2.229570555 
2.217705676 
2.202868597 
2.187114464 
2.13760307 
2.999486852 
2.979799773 
2.936914498 
2.897909223 
2.817644219 
2.797379033 
2.773304556 
2.724713327 
2.597062685 
2.560270485 
2.51932799 
2.484941465 
2.449801704 
2.375882985 
2.390395452 
2.273259528 
2.288541008 
2.255667281 
2.271649404 
2.233165159 
2.187452825 
2.267224982 
2.189673896 
SCALARS KDE_ERROR_TAG double 1
LOOKUP_TABLE default
0.01413779055 
0.01399739173 
0.01369215647 
0.01350116175 
0.01364900709 
0.01326867637 
0.01327835874 
0.01434529813 
0.01350235424 
0.0133513184 
0.01338257831 
0.0135677874 
0.01356757772 
0.01397839097 
0.01366369694 
0.01342306478 
0.01364371749 
0.0135317649 
0.01341880859 
0.01343444603 
0.01344463699 
0.01372674899 
0.01340708105 
0.0136861795 
0.01279778091 
0.01292763596 
0.01312189512 
0.01276264408 
0.01295043648 
0.01288378055 
0.01310913126 
0.01299037376 
0.01320206024 
0.01284715412 
0.01297441858 
0.01296153176 
0.01305820955 
0.01308971007 
0.01280121271 
0.01280290316 
0.01291420027 
0.01308157427 
0.01307989859 
0.01287458895 
0.0126212181 
0.01305804464 
0.01270687571 
0.01269175218 
0.01284568628 
0.01483938891 
0.01332535408 
0.01370843585 
0.01378835197 
0.01383089116 
0.01376822878 
0.01354790629 
0.01395101091 
0.0140661441 
0.01392220689 
0.01378778003 
0.0137212931 
0.01417401463 
0.01416940183 
0.01435981936 
0.01447289558 
0.01438591038 
0.01409974231 
0.01436866683 
0.01447553908 
0.01434426614 
0.01472957721 
0.0143724156 
0.01443554778 
0.0149914525 
0.0143470891 
0.01460402212 
0.01486402896 
0.01428001655 
0.01510815926 
0.01501054394 
0.01462825776 
0.01453042656 
0.01449563962 
0.01447168033 
0.01451050411 
0.01442458293 
0.01444464231 
0.0143464135 
0.01423842986 
0.01450846058 
0.01445958991 
0.01382537464 
0.01412888879 
0.01384840275 
0.01381700023 
0.01407849873 
0.0140147809 
0.01386597298 
0.01377558139 
0.01385600734 
0.01359286435 
0.01359775971 
0.01304402091 
0.01304589463 
0.01317906069 
0.01327808321 
0.01335097553 
0.01345671763 
0.01331673202 
0.01374436464 
0.01334668785 
0.01343719161 
0.01364081334 
0.0138246371 
0.0136497548 
0.01362165512 
0.01435595411 
0.01380545496 
0.01390156298 
0.01397451114 
0.01396244198 
0.01400182047 
0.01393698307 
0.01389988843 
0.01375801843 
0.01296298246 
0.01331571239 
0.01322373999 
0.01367606595 
0.01343469295 
0.01352190901 
0.01368772939 
0.01368817921 
0.01374347033 
0.01362496943 
0.01398586192 
0.01349848124 
0.01395117502 
0.01392867561 
0.01425938284 
0.01402580204 
0.01458101082 
0.01403340261 
0.01459488167 
0.01405158931 
0.01418322867 
0.01400676659 
0.01396248871 
0.01308313774 
0.01330111173 
0.01326561321 
0.01352070119 
0.0135443255 
0.0137413106 
0.01377181844 
0.01376211557 
0.0135747923 
0.01413589115 
0.01418219435 
0.01405357432 
0.01374490982 
0.01407722006 
0.01394043065 
0.01398287489 
0.01400189384 
0.01411136021 
0.01400944446 
0.01424064717 
0.01408178991 
0.01409390044 
0.01426692342 
0.01301419376 
0.01314129953 
0.01345050183 
0.01350783953 
0.01347378366 
0.01351598776 
0.01360676458 
0.01359261887 
0.01361962048 
0.01410862306 
0.01365147035 
0.0138476249 
0.01380241615 
0.0139299277 
0.01383379907 
0.01398138612 
0.0141488793 
0.01418360712 
0.01394110187 
0.01424801408 
0.01421771831 
0.01389876884 
0.0140214423 
0.01311737326 
0.01314741449 
0.01352003704 
0.01324518296 
0.01336788854 
0.01360102179 
0.01369455277 
0.0136829425 
0.01352291509 
0.0137389921 
0.01357407728 
0.01361629421 
0.0136809927 
0.01418214526 
0.01387101269 
0.01393941161 
0.01396976622 
0.01376319141 
0.01443697072 
0.01375386859 
0.01379710196 
0.01412205432 
0.01388925007 
0.01484264112 
0.01441561171 
0.01473018125 
0.01457705508 
0.01455933425 
0.01473533524 
0.01449483904 
0.01408915535 
0.01424221254 
0.01426563015 
0.01391884211 
0.01431613582 
0.01423487503 
0.01445974728 
0.01404140334 
0.01406188693 
0.01403879196 
0.01399020566 
0.01369681415 
0.0140435199 
0.01370151984 
0.01380215879 
0.01372509896 
0.01357045128 
0.01444247398 
0.01423115063 
0.01434211329 
0.0146587418 
0.01454791947 
0.01308402757 
0.01322458274 
0.01340349802 
0.01346659151 
0.01338993693 
0.01357106623 
0.01353620164 
0.01348550988 
0.01348699947 
0.01364208507 
0.0135954293 
0.01380857304 
0.01401543131 
0.01370384917 
0.01378233026 
0.01387038283 
0.01414186891 
0.01428908167 
0.01405770407 
0.01397559526 
0.01387841057 
0.01398713929 
0.01381128198 
0.01338729321 
0.01336169761 
0.01365083677 
0.0133533939 
0.01340894493 
0.0134670349 