# vtk DataFile Version 3.0
MOAB 4.1.0pre
ASCII
DATASET UNSTRUCTURED_GRID
POINTS 2811 double
-0.441866696 -1.43915224 -60.9600182
-0.441866696 -0.239152238 -60.9600182
-0.441866696 -1.43915224 60.9599991
-0.441866696 -0.239152238 60.9599991
-0.866130769 -1.26341629 -60.9600182
-1.04186666 -0.839152217 -60.9600182
-0.866130769 -0.414888173 -60.9600182
-0.0176026132 -0.414888173 -60.9600182
0.158133313 -0.839152217 -60.9600182
-0.0176026132 -1.26341629 -60.9600182
-0.441866696 -1.43915224 -60.4742813
-0.441866696 -1.43915224 -59.9885445
-0.441866696 -1.43915224 -59.5028076
-0.441866696 -1.43915224 -59.0170708
-0.441866696 -1.43915224 -58.5313339
-0.441866696 -1.43915224 -58.0455971
-0.441866696 -1.43915224 -57.5598602
-0.441866696 -1.43915224 -57.0741234
-0.441866696 -1.43915224 -56.5883865
-0.441866696 -1.43915224 -56.1026497
-0.441866696 -1.43915224 -55.6169128
-0.441866696 -1.43915224 -55.131176
-0.441866696 -1.43915224 -54.6454391
-0.441866696 -1.43915224 -54.1596985
-0.441866696 -1.43915224 -53.6739616
-0.441866696 -1.43915224 -53.1882248
-0.441866696 -1.43915224 -52.7024879
-0.441866696 -1.43915224 -52.2167511
-0.441866696 -1.43915224 -51.7310143
-0.441866696 -1.43915224 -51.2452774
-0.441866696 -1.43915224 -50.7595406
-0.441866696 -1.43915224 -50.2738037
-0.441866696 -1.43915224 -49.7880669
-0.441866696 -1.43915224 -49.30233
-0.441866696 -1.43915224 -48.8165932
-0.441866696 -1.43915224 -48.3308563
-0.441866696 -1.43915224 -47.8451157
-0.441866696 -1.43915224 -47.3593788
-0.441866696 -1.43915224 -46.873642
-0.441866696 -1.43915224 -46.3879051
-0.441866696 -1.43915224 -45.9021683
-0.441866696 -1.43915224 -45.4164314
-0.441866696 -1.43915224 -44.9306946
-0.441866696 -1.43915224 -44.4449577
-0.441866696 -1.43915224 -43.9592209
-0.441866696 -1.43915224 -43.473484
-0.441866696 -1.43915224 -42.9877472
-0.441866696 -1.43915224 -42.5020103
-0.441866696 -1.43915224 -42.0162735
-0.441866696 -1.43915224 -41.5305328
-0.441866696 -1.43915224 -41.044796
-0.441866696 -1.43915224 -40.5590591
-0.441866696 -1.43915224 -40.0733223
-0.441866696 -1.43915224 -39.5875854
-0.441866696 -1.43915224 -39.1018486
-0.441866696 -1.43915224 -38.6161118
-0.441866696 -1.43915224 -38.1303749
-0.441866696 -1.43915224 -37.6446381
-0.441866696 -1.43915224 -37.1589012
-0.441866696 -1.43915224 -36.6731644
-0.441866696 -1.43915224 -36.1874275
-0.441866696 -1.43915224 -35.7016907
-0.441866696 -1.43915224 -35.2159538
-0.441866696 -1.43915224 -34.7302132
-0.441866696 -1.43915224 -34.2444763
-0.441866696 -1.43915224 -33.7587395
-0.441866696 -1.43915224 -33.2730026
-0.441866696 -1.43915224 -32.7872658
-0.441866696 -1.43915224 -32.3015289
-0.441866696 -1.43915224 -31.8157921
-0.441866696 -1.43915224 -31.3300552
-0.441866696 -1.43915224 -30.8443184
-0.441866696 -1.43915224 -30.3585815
-0.441866696 -1.43915224 -29.8728428
-0.441866696 -1.43915224 -29.3871059
-0.441866696 -1.43915224 -28.9013691
-0.441866696 -1.43915224 -28.4156322
-0.441866696 -1.43915224 -27.9298954
-0.441866696 -1.43915224 -27.4441586
-0.441866696 -1.43915224 -26.9584198
-0.441866696 -1.43915224 -26.472683
-0.441866696 -1.43915224 -25.9869461
-0.441866696 -1.43915224 -25.5012093
-0.441866696 -1.43915224 -25.0154724
-0.441866696 -1.43915224 -24.5297356
-0.441866696 -1.43915224 -24.0439987
-0.441866696 -1.43915224 -23.55826
-0.441866696 -1.43915224 -23.0725231
-0.441866696 -1.43915224 -22.5867863
-0.441866696 -1.43915224 -22.1010494
-0.441866696 -1.43915224 -21.6153126
-0.441866696 -1.43915224 -21.1295757
-0.441866696 -1.43915224 -20.6438389
-0.441866696 -1.43915224 -20.1581001
-0.441866696 -1.43915224 -19.6723633
-0.441866696 -1.43915224 -19.1866264
-0.441866696 -1.43915224 -18.7008896
-0.441866696 -1.43915224 -18.2151527
-0.441866696 -1.43915224 -17.7294159
-0.441866696 -1.43915224 -17.2436771
-0.441866696 -1.43915224 -16.7579403
-0.441866696 -1.43915224 -16.2722034
-0.441866696 -1.43915224 -15.7864666
-0.441866696 -1.43915224 -15.3007298
-0.441866696 -1.43915224 -14.814992
-0.441866696 -1.43915224 -14.3292551
-0.441866696 -1.43915224 -13.8435183
-0.441866696 -1.43915224 -13.3577814
-0.441866696 -1.43915224 -12.8720436
-0.441866696 -1.43915224 -12.3863068
-0.441866696 -1.43915224 -11.9005699
-0.441866696 -1.43915224 -11.4148321
-0.441866696 -1.43915224 -10.9290953
-0.441866696 -1.43915224 -10.4433584
-0.441866696 -1.43915224 -9.95762062
-0.441866696 -1.43915224 -9.47188377
-0.441866696 -1.43915224 -8.98614693
-0.441866696 -1.43915224 -8.50041008
-0.441866696 -1.43915224 -8.01467228
-0.441866696 -1.43915224 -7.52893543
-0.441866696 -1.43915224 -7.04319811
-0.441866696 -1.43915224 -6.55746126
-0.441866696 -1.43915224 -6.07172394
-0.441866696 -1.43915224 -5.58598709
-0.441866696 -1.43915224 -5.10024977
-0.441866696 -1.43915224 -4.61451244
-0.441866696 -1.43915224 -4.1287756
-0.441866696 -1.43915224 -3.64303827
-0.441866696 -1.43915224 -3.15730119
-0.441866696 -1.43915224 -2.6715641
-0.441866696 -1.43915224 -2.18582702
-0.441866696 -1.43915224 -1.70008981
-0.441866696 -1.43915224 -1.21435273
-0.441866696 -1.43915224 -0.728615582
-0.441866696 -1.43915224 -0.242878437
-0.441866696 -1.43915224 0.242858693
-0.441866696 -1.43915224 0.728595853
-0.441866696 -1.43915224 1.21433294
-0.441866696 -1.43915224 1.70007014
-0.441866696 -1.43915224 2.18580723
-0.441866696 -1.43915224 2.67154431
-0.441866696 -1.43915224 3.1572814
-0.441866696 -1.43915224 3.64301872
-0.441866696 -1.43915224 4.12875557
-0.441866696 -1.43915224 4.61449289
-0.441866696 -1.43915224 5.10023022
-0.441866696 -1.43915224 5.58596706
-0.441866696 -1.43915224 6.07170439
-0.441866696 -1.43915224 6.55744123
-0.441866696 -1.43915224 7.04317856
-0.441866696 -1.43915224 7.52891588
-0.441866696 -1.43915224 8.01465321
-0.441866696 -1.43915224 8.50039005
-0.441866696 -1.43915224 8.9861269
-0.441866696 -1.43915224 9.47186375
-0.441866696 -1.43915224 9.95760155
-0.441866696 -1.43915224 10.4433384
-0.441866696 -1.43915224 10.9290752
-0.441866696 -1.43915224 11.414813
-0.441866696 -1.43915224 11.9005499
-0.441866696 -1.43915224 12.3862867
-0.441866696 -1.43915224 12.8720245
-0.441866696 -1.43915224 13.3577614
-0.441866696 -1.43915224 13.8434982
-0.441866696 -1.43915224 14.3292351
-0.441866696 -1.43915224 14.8149729
-0.441866696 -1.43915224 15.3007097
-0.441866696 -1.43915224 15.7864466
-0.441866696 -1.43915224 16.2721844
-0.441866696 -1.43915224 16.7579212
-0.441866696 -1.43915224 17.2436581
-0.441866696 -1.43915224 17.7293949
-0.441866696 -1.43915224 18.2151318
-0.441866696 -1.43915224 18.7008705
-0.441866696 -1.43915224 19.1866074
-0.441866696 -1.43915224 19.6723442
-0.441866696 -1.43915224 20.1580811
-0.441866696 -1.43915224 20.6438179
-0.441866696 -1.43915224 21.1295547
-0.441866696 -1.43915224 21.6152916
-0.441866696 -1.43915224 22.1010303
-0.441866696 -1.43915224 22.5867672
-0.441866696 -1.43915224 23.072504
-0.441866696 -1.43915224 23.5582409
-0.441866696 -1.43915224 24.0439777
-0.441866696 -1.43915224 24.5297146
-0.441866696 -1.43915224 25.0154533
-0.441866696 -1.43915224 25.5011902
-0.441866696 -1.43915224 25.986927
-0.441866696 -1.43915224 26.4726639
-0.441866696 -1.43915224 26.9584007
-0.441866696 -1.43915224 27.4441376
-0.441866696 -1.43915224 27.9298744
-0.441866696 -1.43915224 28.4156132
-0.441866696 -1.43915224 28.90135
-0.441866696 -1.43915224 29.3870869
-0.441866696 -1.43915224 29.8728237
-0.441866696 -1.43915224 30.3585606
-0.441866696 -1.43915224 30.8442974
-0.441866696 -1.43915224 31.3300343
-0.441866696 -1.43915224 31.815773
-0.441866696 -1.43915224 32.3015099
-0.441866696 -1.43915224 32.7872467
-0.441866696 -1.43915224 33.2729836
-0.441866696 -1.43915224 33.7587204
-0.441866696 -1.43915224 34.2444572
-0.441866696 -1.43915224 34.7301941
-0.441866696 -1.43915224 35.2159309
-0.441866696 -1.43915224 35.7016678
-0.441866696 -1.43915224 36.1874046
-0.441866696 -1.43915224 36.6731453
-0.441866696 -1.43915224 37.1588821
-0.441866696 -1.43915224 37.644619
-0.441866696 -1.43915224 38.1303558
-0.441866696 -1.43915224 38.6160927
-0.441866696 -1.43915224 39.1018295
-0.441866696 -1.43915224 39.5875664
-0.441866696 -1.43915224 40.0733032
-0.441866696 -1.43915224 40.5590401
-0.441866696 -1.43915224 41.0447769
-0.441866696 -1.43915224 41.5305138
-0.441866696 -1.43915224 42.0162506
-0.441866696 -1.43915224 42.5019875
-0.441866696 -1.43915224 42.9877281
-0.441866696 -1.43915224 43.473465
-0.441866696 -1.43915224 43.9592018
-0.441866696 -1.43915224 44.4449387
-0.441866696 -1.43915224 44.9306755
-0.441866696 -1.43915224 45.4164124
-0.441866696 -1.43915224 45.9021492
-0.441866696 -1.43915224 46.387886
-0.441866696 -1.43915224 46.8736229
-0.441866696 -1.43915224 47.3593597
-0.441866696 -1.43915224 47.8450966
-0.441866696 -1.43915224 48.3308334
-0.441866696 -1.43915224 48.8165703
-0.441866696 -1.43915224 49.3023109
-0.441866696 -1.43915224 49.7880478
-0.441866696 -1.43915224 50.2737846
-0.441866696 -1.43915224 50.7595215
-0.441866696 -1.43915224 51.2452583
-0.441866696 -1.43915224 51.7309952
-0.441866696 -1.43915224 52.216732
-0.441866696 -1.43915224 52.7024689
-0.441866696 -1.43915224 53.1882057
-0.441866696 -1.43915224 53.6739426
-0.441866696 -1.43915224 54.1596794
-0.441866696 -1.43915224 54.6454163
-0.441866696 -1.43915224 55.1311531
-0.441866696 -1.43915224 55.61689
-0.441866696 -1.43915224 56.1026306
-0.441866696 -1.43915224 56.5883675
-0.441866696 -1.43915224 57.0741043
-0.441866696 -1.43915224 57.5598412
-0.441866696 -1.43915224 58.045578
-0.441866696 -1.43915224 58.5313148
-0.441866696 -1.43915224 59.0170517
-0.441866696 -1.43915224 59.5027885
-0.441866696 -1.43915224 59.9885254
-0.441866696 -1.43915224 60.4742622
-0.866130769 -1.26341629 60.9599991
-1.04186666 -0.839152217 60.9599991
-0.866130769 -0.414888173 60.9599991
-0.441866696 -0.239152238 60.4742622
-0.441866696 -0.239152238 59.9885254
-0.441866696 -0.239152238 59.5027885
-0.441866696 -0.239152238 59.0170517
-0.441866696 -0.239152238 58.5313148
-0.441866696 -0.239152238 58.045578
-0.441866696 -0.239152238 57.5598412
-0.441866696 -0.239152238 57.0741043
[...]
CELL_DATA 9457
SCALARS TALLY_TAG double 1
LOOKUP_TABLE default
0.01249625419 
0.007976287229 
0.00968310642 
0.0123121154 
0.01097125935 
0.007581725461 
0.007831239937 
0.01009027804 
0.007282950407 
0.007797346024 
0.01545637093 
0.01382812616 
0.005082658024 
0.007458900854 
0.01155343463 
0.01472481926 
0.007712543121 
0.005622714473 
0.006451725384 
0.008458465337 
0.009109582042 
0.004925288779 
0.004929162754 
0.009113315602 
0.006199664401 
0.006186322136 
0.007900900741 
0.009397144387 
0.006457197117 
0.005081100642 
0.006266978743 
0.004385455296 
0.01043487076 
0.008249462048 
0.01212132548 
0.006842090067 
0.007417903367 
0.007771690867 
0.01262781745 
0.0107032274 
0.008722111437 
0.009333189959 
0.01920072625 
0.009033381455 
0.01708094344 
0.01364721577 
0.01115193645 
0.008154390643 
0.0137843442 
0.007086302235 
0.009069928987 
0.006806286199 
0.009231191443 
0.007255587882 
0.01287041513 
0.0047104256 
0.005383036139 
0.00426433165 
0.01197748426 
0.01081634621 
0.008579248667 
0.008187260803 
0.003308442428 
0.009776279386 
0.005973742757 
0.004130295725 
0.008725126112 
0.01001297821 
0.01025949988 
0.004337028298 
0.009523281741 
0.01597732549 
0.005545481111 
0.009605451723 
0.01325011296 
0.01013444166 
0.008795739709 
0.01068710485 
0.00846874835 
0.006150302458 
0.00833997544 
0.004462397397 
0.01381796795 
0.005735078027 
0.007972296318 
0.007193781254 
0.004458369077 
0.009714072914 
0.007900350226 
0.006041887692 
0.004731544839 
0.009809890522 
0.007881541714 
0.01263891136 
0.01083870891 
0.01600323414 
0.01821140037 
0.007451333313 
0.008966499788 
0.01020884407 
0.008619432186 
0.004483717668 
0.003206553693 
0.004770705104 
0.004913260116 
0.01083736357 
0.006019356282 
0.008917552582 
0.002576665676 
0.00551806006 
0.003819229238 
0.008824704306 
0.00834611789 
0.008047128769 
0.007173345087 
0.004432129042 
0.01563071566 
0.008505912745 
0.005987309439 
0.005520946458 
0.00797889811 
0.006442318459 
0.003925320838 
0.006454991959 
0.01043035887 
0.007922375405 
0.01066343893 
0.008855213099 
0.01200480076 
0.005835374461 
0.01116926848 
0.004945469878 
0.007811509036 
0.01181413926 
0.00869209409 
0.003571640507 
0.003519358956 
0.01024340157 
0.01022787898 
0.008091211331 
0.01381667091 
0.009266886134 
0.005604286697 
0.01370428438 
0.01099111496 
0.008818829787 
0.01013386617 
0.01440636492 
0.007167260435 
0.01180542326 
0.007876620497 
0.01057391721 
0.008832420195 
0.009895135298 
0.01034116439 
0.008186084153 
0.004243766495 
0.004557438786 
0.005959051916 
0.01195638458 
0.005127007672 
0.009950426798 
0.01153327961 
0.006381408259 
0.006032361924 
0.005549413279 
0.006957670014 
0.005361689241 
0.006552094274 
0.007300677769 
0.008396328441 
0.01117980813 
0.01079236028 
0.01284869864 
0.006965970262 
0.004188743458 
0.008500105716 
0.009124798171 
0.01133009349 
0.007056529679 
0.008330565915 
0.006773367659 
0.009992327258 
0.006277982571 
0.01016647612 
0.005620912347 
0.008025139233 
0.007335506322 
0.007792300147 
0.007128041189 
0.005271220042 
0.004490544776 
0.00630481752 
0.006033117024 
0.006334923792 
0.003500922186 
0.005994627958 
0.008306690612 
0.005218855477 
0.01286298012 
0.00565302745 
0.007831470908 
0.006453521121 
0.01156819325 
0.01356447931 
0.007531030116 
0.007306678714 
0.007409282079 
0.005914776949 
0.00390104472 
0.004904452999 
0.004625347931 
0.00761956175 
0.005835812123 
0.004236814503 
0.01355887503 
0.02128760209 
0.01196960137 
0.006129756278 
0.009376471727 
0.009870922457 
0.01478231582 
0.01098981974 
0.01286743968 
0.007973630327 
0.01787601782 
0.008549042767 
0.009809684273 
0.007010031008 
0.006267569045 
0.00588006553 
0.01511284193 
0.005079228877 
0.008973033222 
0.0200108339 
0.01032193475 
0.01378883209 
0.01388332401 
0.0112994784 
0.006059669412 
0.007253847781 
0.0137634498 
0.01342015645 
0.01065377203 
0.009595335349 
0.007854521794 
0.009338065892 
0.01100643762 
0.008715612188 
0.007509201104 
0.01019667162 
0.007594908426 
0.006246628106 
0.002864084284 
0.007562328699 
0.01296656152 
0.01064792264 
0.01082689969 
0.01149608008 
0.0137392999 
0.007225507584 
0.007713305335 
0.01135641275 
0.0082881577 
0.007862123649 
0.008270175636 
0.008006651745 
0.005214868423 
0.009582846836 
0.004600245529 
0.01130840691 
0.007300259188 
0.01252998622 
0.01311627148 
0.004978382757 
0.01051904313 
0.0116293513 
0.005438452898 
0.007790397451 
0.004594367957 
0.006032533824 
0.006851775939 
0.007740690565 
0.009095242665 
0.008199568313 
0.0100567781 
0.01014870853 
0.00828406558 
0.01752715056 
0.005571684343 
0.006635196484 
0.0167746712 
0.006854985253 
0.006683311838 
0.0127034562 
0.006312352291 
0.004698102631 
0.004893443108 
0.008621439907 
0.007640690043 
0.0055873588 
0.009810923781 
0.01224855631 
0.01126118521 
0.005243719582 
0.01150037156 
0.00976140286 
0.006924927424 
0.009474728163 
0.007329041345 
0.01451683002 
0.01444043339 
0.00855833033 
0.01532825226 
0.01230809488 
0.01132891685 
0.005707446223 
0.007470504274 
0.006510954652 
0.006563203303 
0.006801747216 
0.01322762025 
0.009575156079 
0.01136647615 
0.01817471628 
0.01202771888 
0.01212296192 
0.01221013323 
0.0175064774 
0.01043227387 
0.01206205696 
0.01664257748 
0.01006074472 
0.01452889598 
0.008318729021 
0.008827437673 
0.006412128349 
0.007157139906 
0.01207708666 
0.01075752925 
0.006633431646 
0.01152218141 
0.01179669432 
0.01384774227 
0.01016514052 
0.008718253568 
0.01831448885 
0.016917112 
0.008127969351 
0.00580975026 
0.008635368487 
0.007530862726 
0.006096470533 
0.006379381208 
0.00720502395 
0.004933505872 
0.005916658685 
0.005557993931 
0.007517151517 
0.005658369343 
0.0125923653 
0.01511468554 
0.008787920933 
0.005557524602 
0.01502573339 
0.006346972381 
0.005525481467 
0.01046597063 
0.01341143299 
0.01313513961 
0.008985226902 
0.006622836125 
0.005568677622 
0.007699010957 
0.008542067785 
0.004831298511 
0.009773684883 
0.004506892441 
0.007844497079 
0.007640728591 
0.01128539726 
0.009418880102 
0.01076106393 
0.01116335754 
0.01828014162 
0.009685666654 
0.008587721329 
0.00609366029 
0.02063446749 
0.01071558534 
0.002591952333 
0.005771897519 
0.01052104496 
0.007263072606 
0.009172254128 
0.01840742707 
0.005604945364 
0.007075394871 
0.009315663837 
0.009376856924 
0.01207257843 
0.007775789569 
0.01359680777 
0.005246221914 
0.004322776867 
0.0105214449 
0.0091273271 
0.009530793065 
0.007965527051 
0.007568052968 
0.007822206304 
0.00965191124 
0.007891091602 
0.01310365225 
0.008182997444 
0.009206521006 
0.01140178644 
0.01472526705 
0.00720308233 
0.01022951496 
0.01493382172 
0.009382300443 
0.008437137968 
0.006342487804 
0.009425857124 
0.009886635088 
0.01165713667 
0.00805788412 
0.007402572484 
0.005045294033 
0.006234861198 
0.008515967893 
0.007926536268 
0.007006930572 
0.004424860438 
0.005683372943 
0.008924934566 
0.003721915253 
0.005315405439 
0.0106621431 
0.01050941256 
0.006318531982 
0.01434754816 
0.01027129406 
0.008947983841 
0.008754585186 
0.009029722146 
0.01286426095 
0.01287548046 
0.007136430822 
0.008339924171 
0.009716053572 
0.005777889379 
0.003290479199 
0.005407839963 
0.012604907 
0.007309111655 
0.005011234514 
0.006213875184 
0.007758737482 
0.007883790719 
0.009212645415 
0.003460096727 
0.004794629353 
0.006895606111 
0.007256384412 
0.005109680777 
0.007001341621 
0.005236192595 
0.0107818538 
0.009022383517 
0.01078501485 
0.02226435237 
0.01888730596 
0.007121558785 
0.007160759454 
0.007605629607 
0.008120617754 
0.01092474869 
0.008582402174 
0.00701081135 
0.00722404476 
0.010922424 
0.007484861017 
0.01032047455 
0.004831056551 
0.002015658553 
0.01319408515 
0.01310032805 
0.006484964971 
0.007117298453 
0.0113340155 
0.004114009787 
0.006591229777 
0.009272953806 
0.005069487638 
0.005898798552 
0.008736343576 
0.01037152029 
0.008297223653 
0.01190361408 
0.008192991263 
0.005367216066 
0.008697112766 
0.007133366124 
0.0116493803 
0.004677853297 
0.02012354277 
0.01231466933 
0.01196975428 
0.01001536109 
0.01002635845 
0.01228522783 
0.006257949673 
0.007478405904 
0.00405323971 
0.01043243009 
0.0065204364 
0.007745909436 
0.006348715365 
0.007960070732 
0.006385913002 
0.007518278814 
0.00848963368 
0.007275066996 
0.005196854699 
0.00573877837 
0.0132646915 
0.01237873335 
0.009940356193 
0.006934026088 
0.006119188785 
0.01494459755 
0.009828196919 
0.00854702138 
0.006435129781 
0.004445974297 
0.009163175095 
0.006720299631 
0.008768090101 
0.009244988539 
0.005027713136 
0.006283822293 
0.006878500368 
0.007471474868 
0.005663623153 
0.008061378511 
0.005791992457 
0.01243282682 
0.01415321168 
0.01397578955 
0.008823987429 
0.005603832441 
0.004860367083 
0.008497259621 
0.01172363534 
0.005476926188 
0.011193108 
0.011646098 
0.01260798693 
0.007334665096 
0.007888936077 
0.01208234637 
0.009106880683 
0.01739793851 
0.01350967208 
0.01195816571 
0.007267103695 
0.009496549585 
0.007288946185 
0.005710709114 
0.005638293101 
0.009573524603 
0.01660397197 
0.01337395105 
0.01363762482 
0.01105663231 
0.008481857553 
0.007607047967 
0.008919666065 
0.01114021899 
0.008172751637 
0.01026058829 
0.007667584779 
0.00588638538 
0.01476258673 
0.01122376295 
0.01073864321 
0.011462655 
0.02002453792 
0.00904039257 
0.007705261139 
0.006371861018 
0.005506404234 
0.006779991848 
0.00665641739 
0.00657467673 
0.01193114142 
0.0109196414 
0.009639919469 
0.007647039319 
0.008960539102 
0.005467049079 
0.01386266763 
0.01230005897 
0.009090092426 
0.00862940268 
0.01274871385 
0.01036792976 
0.01003322909 
0.008361668505 
0.01208334532 
0.008068193221 
0.008849648008 
0.009678385699 
0.006217381029 
0.009788639622 
0.00610949558 
0.005819538582 
0.006413679178 
0.01359615779 
0.01585185385 
0.01082431002 
0.01055329758 
0.005128212089 
0.01067449074 
0.006224107011 
0.01339205655 
0.01473426674 
0.01245954044 
0.01551320518 
0.01055950929 
0.01248789788 
0.01280057308 
0.0117497633 
0.0137073325 
0.009962098289 
0.008704005099 
0.00582142271 
0.00693697892 
0.01051003529 
0.004950163683 
0.007617646572 
0.003843119986 
0.009623041501 
0.005110103324 
0.02219833119 
0.0176162146 
0.01629732026 
0.006359256914 
0.007941612295 
0.009553343653 
0.009894964421 
0.01264297061 
0.005543700586 
0.004276420383 
0.009184679931 
0.005088133898 
0.006870770743 
0.005164164678 
0.007152641051 
0.008510197217 
0.004251781103 
0.009007618325 
0.01148048797 
0.008501167759 
0.008411646253 
0.01408834492 
0.006437163174 
0.007750130223 
0.009827242767 
0.005997589357 
0.01440511193 
0.01192055987 
0.007207856777 
0.007517982319 
0.005576011598 
0.01767726149 
0.00456530676 
0.01522670613 
0.01555681818 
0.007808481841 
0.004767369909 
0.01110788645 
0.01183312909 
0.01034813246 
0.01357840651 
0.009329656812 
0.008894968203 
0.008888271596 
0.006221366379 
0.008655590534 
0.007620391622 
0.01315490649 
0.005869059144 
0.006637292328 
0.01168113596 
0.009991615944 
0.00734023613 
0.005859859333 
0.007230473335 
0.00594528914 
0.005214102982 
0.009146520785 
0.006118524212 
0.008420538982 
0.005838530162 
0.007245148559 
0.008885361243 
0.005715259907 
0.006726062151 
0.009447690058 
0.004473454703 
0.006734327925 
0.004059323024 
0.004613802416 
0.00805227288 
0.005491114359 
0.007513408637 
0.006916070685 
0.005524463499 
0.009044546647 
0.006367949714 
0.009578434969 
0.008034446023 
0.004841621436 
0.004266743574 
0.006398814019 
0.009695182095 
0.008743132149 
0.003787160507 
0.008458456315 
0.01440561516 
0.02016224451 
0.0107567784 
0.01455216512 
0.01325887642 
0.00899198161 
0.01094173299 
0.006501476794 
0.006482738341 
0.003638112827 
0.007950822276 
0.01163190471 
0.01292876669 
0.01432064275 
0.01692235387 
0.009186794442 
0.01342097022 
0.009410437264 
0.008607193766 
0.0091606238 
0.009018063556 
0.005182989778 
0.00534957869 
0.008153669388 
0.009227858842 
0.005664738401 
0.0117609619 
0.004692918448 
0.01324590697 
0.002851866764 
0.01198865389 
0.005433463604 
0.009393173438 
0.00385756669 
0.003360876896 
0.006345069374 
0.01148942286 
0.01556152671 
0.01575907158 
0.01316857583 
0.007821211121 
0.004728344847 
0.009801644935 
0.008870930419 
0.006830172924 
0.005225830627 
0.007832691881 
0.006846698815 
0.007957828139 
0.005236351308 
0.004037909795 
0.009419012666 
0.006529622751 
0.006860122595 
0.007438529 
0.008314682966 
0.003897492787 
0.003730207294 
0.005511653047 
0.007031357192 
0.005052921356 
0.004643572085 
0.01361935611 
0.01338916996 
0.01010156483 
0.005632955625 
0.01009190201 
0.006101631133 
0.01335733472 
0.01065616367 
0.01129253203 
0.00613119343 
0.01444960749 
0.01002544173 
0.005336500895 
0.007271117561 
0.01067846252 
0.01231056849 
0.007495636775 
0.00875945808 
0.008036193859 
0.005890689695 
0.005006934924 
0.007946900592 
0.009753767573 
0.00956369207 
0.008968395394 
0.005152825473 
0.02129840651 
0.01000874605 
0.005239340051 
0.01405091685 
0.008550055471 
0.01011557076 
0.01278661583 
0.01063399034 
0.01531000862 
0.01369887879 
0.005673014322 
0.00855237846 
0.008946115529 
0.007647389262 
0.01059428064 
0.01322663795 
0.006866367483 
0.008840958676 
0.009732809849 
0.008314515901 
0.01738335232 
0.01807334665 
0.01318839192 
0.006900136197 
0.005113206774 
0.01461985369 
0.0119387493 
0.009213399949 
0.009431251735 
0.009873371419 
0.009949670778 
0.005686869837 
0.0109612851 
0.007369809155 
0.009266399496 
0.006235464262 
0.0157200936 
0.01033936153 
0.005773519084 
0.00772454432 
0.006384282133 
0.006928768024 
0.01030028421 
0.00911047537 
0.009169274355 
0.01552383823 
0.008914466955 
0.006182714241 
0.005787449776 
0.007138548907 
0.008544762152 
0.01272852524 
0.005424370812 
0.003506849923 
0.006217037364 
0.01253377388 
0.003966585044 
0.003995934291 
0.01020947602 
0.005635173154 
0.004817791425 
0.003538672423 
0.003477549262 
0.006804158246 
0.006964277691 
0.003628264121 
0.004516968191 
0.009840765893 
0.007225701664 
0.009434441152 
0.01007758037 
0.006114218155 
0.005342558544 
0.008729021488 
0.005706956086 
0.0101003476 
0.006359542653 
0.008837035639 
0.006915579386 
0.005094535114 
0.009122822492 
0.005975837293 
0.008581562665 
0.01015763474 
0.009943257202 
0.007246986872 
0.006889228806 
0.008634612666 
0.008427532514 
0.007512584048 
0.009073735838 
0.00933020031 
0.008068134164 
0.006196280281 
0.005592830149 
0.01147219262 
0.00773866549 
0.009685236529 
0.01294337659 
0.01671216002 
0.01454446869 
0.0127817103 
0.01662890226 
0.01206073152 
0.01855146831 
0.00403005219 
0.007017027739 
0.004436891569 
0.009875428107 
0.01335633817 
0.0228718146 
0.0114581115 
0.008876226853 
0.02057038865 
0.01596744979 
0.01210416359 
0.01001318449 
0.0149169652 
0.02080053551 
0.01069345679 
0.007464676864 
0.008024246559 
0.01354649906 
0.009808856147 
0.009961316023 
0.009929400864 
0.00894095621 
0.006927261954 
0.01266196459 
0.008735868627 
0.004884241512 
0.004932907409 
0.009670703232 
0.01259157554 
0.01987651896 
0.01458947606 
0.01527029564 
0.006278908359 
0.006681795966 
0.008556839217 
0.01003312373 
0.01247622244 
0.00786414197 
0.008236031015 
0.006484332176 
0.009521811389 
0.008791968227 
0.01284985566 
0.008262349415 
0.009302319663 
0.005180729539 
0.008550205924 
0.007777509652 
0.007358949841 
0.01582648078 
0.009999234844 
0.006006757375 
0.01273764269 
0.006653566744 
0.008255206913 
0.005809624977 
0.008516899981 
0.00906617324 
0.004079109866 
0.01226237618 
0.004566975874 
0.008751934583 
0.01063641676 
0.01401523047 
0.00957662651 
0.009616008461 
0.00822179614 
0.009079737365 
0.005821290943 
0.003757710067 
0.003163968731 
0.007626810151 
0.007831845233 
0.00742675284 
0.008951329163 
0.01305541843 
0.0148818855 
0.007083209701 
0.006043908592 
0.008789375656 
0.009350988753 
0.0111805734 
0.01157811252 
0.009345340315 
0.007103041315 
0.007705780364 
0.009601805934 
0.01204659765 
0.008995259355 
0.009494351056 
0.009212158878 
0.00868783708 
0.01096998483 
0.01056224628 
0.009289024144 
0.009677062846 
0.01080301878 
0.003565842348 
0.008525380213 
0.003388915082 
0.00775398405 
0.004483908457 
0.01964029335 
0.01182054454 
0.01182358071 
0.01449813357 
0.009430110339 
0.01790822642 
0.0125004032 
0.009797326765 
0.00485953394 
0.004328459335 
0.009048630803 
0.007392756953 
0.007151991697 
0.01799759654 
0.008263391611 
0.005817646059 
0.006502335496 
0.008496595578 
0.01176012213 
0.007969833051 
0.004948712908 
0.005358706188 
0.006222069966 
0.005540504807 
0.004559180961 
0.01411109063 
0.01234427372 
0.007310686812 
0.01452429655 
0.007430140845 
0.01540348861 
0.01453284289 
0.01390488142 
0.01242500533 
0.01111676715 
0.01383305037 
0.007789681763 
0.008116688496 
0.0123178865 
0.00999125331 
0.01396028833 
0.006022836205 
0.007612746667 
0.006877115348 
0.009231032901 
0.006695167234 
0.005880741037 
0.01188942506 
0.01884260638 
0.009748728249 
0.006895448686 
0.01006308535 
0.006707585302 
0.005339541007 
0.007879533318 
0.003105383685 
0.004086449299 
0.006429090587 
0.007979716427 
0.00754282425 
0.01255274363 
0.006120022316 
0.01020508316 
0.004981240145 
0.006064548806 
0.005532883154 
0.004970735187 
0.006868450641 
0.005272161631 
0.008052544121 
0.0155820504 
0.007460757752 
0.007740932365 
0.009386173678 
0.01353104579 
0.009872855194 
0.01392417816 
0.005756804518 
0.004614482118 
0.0055370498 
0.00846587142 
0.004644956184 
0.00934300395 
0.007480173861 
0.008000644545 
0.007052022058 
0.01242564323 
0.00907983726 
0.007356525673 
0.01136870773 
0.01247844209 
0.0178568624 
0.009395812317 
0.007915621238 
0.00591314608 
0.023846079 
0.02519723093 
0.01340070493 
0.01347366762 
0.009927037212 
0.01024274288 
0.01032819582 
0.003749598026 
0.003439524179 
0.01039733583 
0.01010864906 
0.007181106076 
0.01565003087 
0.005582900968 
0.008631617062 
0.01086993757 
0.008835622699 
0.01163122089 
0.008456228582 
0.02198177875 
0.006702424981 
0.008140348762 
0.01548956608 
0.004693679298 
0.008888649287 
0.007853033234 
0.004066205396 
0.01297564562 
0.009826275787 
0.01554663354 
0.01182781185 
0.01028195872 
0.009717397428 
0.004232267197 
0.007347163437 
0.01724740794 
0.005302413917 
0.005387497692 
0.005543177822 
0.003818000585 
0.01234990941 
0.01295544871 
0.01409741663 
0.008126640072 
0.01102878255 
0.008428847803 
0.01409780512 
0.01490967427 
0.01420351687 
0.01068772738 
0.01276880099 
0.01238427376 
0.01097907643 
0.003794757265 
0.004135623901 
0.008323874312 
0.005899766335 
0.002794716784 
0.008503106788 
0.01199963689 
0.008543685341 
0.005093788932 
0.01431920396 
0.007223454715 
0.00516045249 
0.01084822729 
0.008108997856 
0.01011497265 
0.008938582131 
0.01025666449 
0.01010669174 
0.007577902603 
0.009020647347 
0.004842770852 
0.01647234469 
0.007574864021 
0.005787511994 
0.006626677844 
0.008258669764 
0.01083028049 
0.005880783037 
0.005203122915 
0.006986481557 
0.006886571942 
0.004699868483 
0.009642690084 
0.004697278467 
0.004720071348 
0.005055145521 
0.006926580508 
0.01139462027 
0.005277571138 
0.005454514229 
0.005714330295 
0.005734894518 
0.01301052665 
0.006418454224 
0.009671730105 
0.01795361425 
0.009568263122 
0.009491964395 
0.007257375914 
0.01038165326 
0.01230517906 
0.01260114901 
0.005560130899 
0.006513652926 
0.005864249357 
0.005901403846 
0.006584138837 
0.006124628156 
0.006059796718 
0.007206270525 
0.005145899483 
0.005684068848 
0.009719746485 
0.003927277529 
0.006464933928 
0.005585567341 
0.007441438232 
0.004953250632 
0.004639609631 
0.00534354643 
0.003878654529 
0.0162175334 
0.01183234615 
0.009663736294 
0.005356196672 
0.009086348131 
0.00933707084 
0.009366484725 
0.01889628519 
0.006788961377 
0.00790424063 
0.01537109289 
0.01288930967 
0.005926337493 
0.01271564012 
0.0104758864 
0.00506106921 
0.00368221197 
0.003248696993 
0.00700346654 
0.009527945681 
0.007968167953 
0.006289959232 
0.005383465615 
0.007394450712 
0.00355341872 
0.005028762444 
0.01245403291 
0.004707668601 
0.00865875428 
0.01002985691 
0.01121297385 
0.01070814276 
0.005532966863 
0.009210138195 
0.005682204431 