# vtk DataFile Version 3.0
MOAB 4.1.0pre
ASCII
DATASET UNSTRUCTURED_GRID
POINTS 2814 double
0.445610315 0.246495873 -60.9600182
0.445610315 1.44649589 -60.9600182
0.445610315 0.246495873 60.9599991
0.445610315 1.44649589 60.9599991
0.0213462412 0.422231823 -60.9600182
-0.154389694 0.846495867 -60.9600182
0.0213462412 1.27075994 -60.9600182
0.869874358 1.27075994 -60.9600182
1.04561031 0.846495867 -60.9600182
0.869874358 0.422231823 -60.9600182
0.445610315 0.246495873 -60.4742813
0.445610315 0.246495873 -59.9885445
0.445610315 0.246495873 -59.5028076
0.445610315 0.246495873 -59.0170708
0.445610315 0.246495873 -58.5313339
0.445610315 0.246495873 -58.0455971
0.445610315 0.246495873 -57.5598602
0.445610315 0.246495873 -57.0741234
0.445610315 0.246495873 -56.5883865
0.445610315 0.246495873 -56.1026497
0.445610315 0.246495873 -55.6169128
0.445610315 0.246495873 -55.131176
0.445610315 0.246495873 -54.6454391
0.445610315 0.246495873 -54.1596985
0.445610315 0.246495873 -53.6739616
0.445610315 0.246495873 -53.1882248
0.445610315 0.246495873 -52.7024879
0.445610315 0.246495873 -52.2167511
0.445610315 0.246495873 -51.7310143
0.445610315 0.246495873 -51.2452774
0.445610315 0.246495873 -50.7595406
0.445610315 0.246495873 -50.2738037
0.445610315 0.246495873 -49.7880669
0.445610315 0.246495873 -49.30233
0.445610315 0.246495873 -48.8165932
0.445610315 0.246495873 -48.3308563
0.445610315 0.246495873 -47.8451157
0.445610315 0.246495873 -47.3593788
0.445610315 0.246495873 -46.873642
0.445610315 0.246495873 -46.3879051
0.445610315 0.246495873 -45.9021683
0.445610315 0.246495873 -45.4164314
0.445610315 0.246495873 -44.9306946
0.445610315 0.246495873 -44.4449577
0.445610315 0.246495873 -43.9592209
0.445610315 0.246495873 -43.473484
0.445610315 0.246495873 -42.9877472
0.445610315 0.246495873 -42.5020103
0.445610315 0.246495873 -42.0162735
0.445610315 0.246495873 -41.5305328
0.445610315 0.246495873 -41.044796
0.445610315 0.246495873 -40.5590591
0.445610315 0.246495873 -40.0733223
0.445610315 0.246495873 -39.5875854
0.445610315 0.246495873 -39.1018486
0.445610315 0.246495873 -38.6161118
0.445610315 0.246495873 -38.1303749
0.445610315 0.246495873 -37.6446381
0.445610315 0.246495873 -37.1589012
0.445610315 0.246495873 -36.6731644
0.445610315 0.246495873 -36.1874275
0.445610315 0.246495873 -35.7016907
0.445610315 0.246495873 -35.2159538
0.445610315 0.246495873 -34.7302132
0.445610315 0.246495873 -34.2444763
0.445610315 0.246495873 -33.7587395
0.445610315 0.246495873 -33.2730026
0.445610315 0.246495873 -32.7872658
0.445610315 0.246495873 -32.3015289
0.445610315 0.246495873 -31.8157921
0.445610315 0.246495873 -31.3300552
0.445610315 0.246495873 -30.8443184
0.445610315 0.246495873 -30.3585815
0.445610315 0.246495873 -29.8728428
0.445610315 0.246495873 -29.3871059
0.445610315 0.246495873 -28.9013691
0.445610315 0.246495873 -28.4156322
0.445610315 0.246495873 -27.9298954
0.445610315 0.246495873 -27.4441586
0.445610315 0.246495873 -26.9584198
0.445610315 0.246495873 -26.472683
0.445610315 0.246495873 -25.9869461
0.445610315 0.246495873 -25.5012093
0.445610315 0.246495873 -25.0154724
0.445610315 0.246495873 -24.5297356
0.445610315 0.246495873 -24.0439987
0.445610315 0.246495873 -23.55826
0.445610315 0.246495873 -23.0725231
0.445610315 0.246495873 -22.5867863
0.445610315 0.246495873 -22.1010494
0.445610315 0.246495873 -21.6153126
0.445610315 0.246495873 -21.1295757
0.445610315 0.246495873 -20.6438389
0.445610315 0.246495873 -20.1581001
0.445610315 0.246495873 -19.6723633
0.445610315 0.246495873 -19.1866264
0.445610315 0.246495873 -18.7008896
0.445610315 0.246495873 -18.2151527
0.445610315 0.246495873 -17.7294159
0.445610315 0.246495873 -17.2436771
0.445610315 0.246495873 -16.7579403
0.445610315 0.246495873 -16.2722034
0.445610315 0.246495873 -15.7864666
0.445610315 0.246495873 -15.3007298
0.445610315 0.246495873 -14.814992
0.445610315 0.246495873 -14.3292551
0.445610315 0.246495873 -13.8435183
0.445610315 0.246495873 -13.3577814
0.445610315 0.246495873 -12.8720436
0.445610315 0.246495873 -12.3863068
0.445610315 0.246495873 -11.9005699
0.445610315 0.246495873 -11.4148321
0.445610315 0.246495873 -10.9290953
0.445610315 0.246495873 -10.4433584
0.445610315 0.246495873 -9.95762062
0.445610315 0.246495873 -9.47188377
0.445610315 0.246495873 -8.98614693
0.445610315 0.246495873 -8.50041008
0.445610315 0.246495873 -8.01467228
0.445610315 0.246495873 -7.52893543
0.445610315 0.246495873 -7.04319811
0.445610315 0.246495873 -6.55746126
0.445610315 0.246495873 -6.07172394
0.445610315 0.246495873 -5.58598709
0.445610315 0.246495873 -5.10024977
0.445610315 0.246495873 -4.61451244
0.445610315 0.246495873 -4.1287756
0.445610315 0.246495873 -3.64303827
0.445610315 0.246495873 -3.15730119
0.445610315 0.246495873 -2.6715641
0.445610315 0.246495873 -2.18582702
0.445610315 0.246495873 -1.70008981
0.445610315 0.246495873 -1.21435273
0.445610315 0.246495873 -0.728615582
0.445610315 0.246495873 -0.242878437
0.445610315 0.246495873 0.242858693
0.445610315 0.246495873 0.728595853
0.445610315 0.246495873 1.21433294
0.445610315 0.246495873 1.70007014
0.445610315 0.246495873 2.18580723
0.445610315 0.246495873 2.67154431
0.445610315 0.246495873 3.1572814
0.445610315 0.246495873 3.64301872
0.445610315 0.246495873 4.12875557
0.445610315 0.246495873 4.61449289
0.445610315 0.246495873 5.10023022
0.445610315 0.246495873 5.58596706
0.445610315 0.246495873 6.07170439
0.445610315 0.246495873 6.55744123
0.445610315 0.246495873 7.04317856
0.445610315 0.246495873 7.52891588
0.445610315 0.246495873 8.01465321
0.445610315 0.246495873 8.50039005
0.445610315 0.246495873 8.9861269
0.445610315 0.246495873 9.47186375
0.445610315 0.246495873 9.95760155
0.445610315 0.246495873 10.4433384
0.445610315 0.246495873 10.9290752
0.445610315 0.246495873 11.414813
0.445610315 0.246495873 11.9005499
0.445610315 0.246495873 12.3862867
0.445610315 0.246495873 12.8720245
0.445610315 0.246495873 13.3577614
0.445610315 0.246495873 13.8434982
0.445610315 0.246495873 14.3292351
0.445610315 0.246495873 14.8149729
0.445610315 0.246495873 15.3007097
0.445610315 0.246495873 15.7864466
0.445610315 0.246495873 16.2721844
0.445610315 0.246495873 16.7579212
0.445610315 0.246495873 17.2436581
0.445610315 0.246495873 17.7293949
0.445610315 0.246495873 18.2151318
0.445610315 0.246495873 18.7008705
0.445610315 0.246495873 19.1866074
0.445610315 0.246495873 19.6723442
0.445610315 0.246495873 20.1580811
0.445610315 0.246495873 20.6438179
0.445610315 0.246495873 21.1295547
0.445610315 0.246495873 21.6152916
0.445610315 0.246495873 22.1010303
0.445610315 0.246495873 22.5867672
0.445610315 0.246495873 23.072504
0.445610315 0.246495873 23.5582409
0.445610315 0.246495873 24.0439777
0.445610315 0.246495873 24.5297146
0.445610315 0.246495873 25.0154533
0.445610315 0.246495873 25.5011902
0.445610315 0.246495873 25.986927
0.445610315 0.246495873 26.4726639
0.445610315 0.246495873 26.9584007
0.445610315 0.246495873 27.4441376
0.445610315 0.246495873 27.9298744
0.445610315 0.246495873 28.4156132
0.445610315 0.246495873 28.90135
0.445610315 0.246495873 29.3870869
0.445610315 0.246495873 29.8728237
0.445610315 0.246495873 30.3585606
0.445610315 0.246495873 30.8442974
0.445610315 0.246495873 31.3300343
0.445610315 0.246495873 31.815773
0.445610315 0.246495873 32.3015099
0.445610315 0.246495873 32.7872467
0.445610315 0.246495873 33.2729836
0.445610315 0.246495873 33.7587204
0.445610315 0.246495873 34.2444572
0.445610315 0.246495873 34.7301941
0.445610315 0.246495873 35.2159309
0.445610315 0.246495873 35.7016678
0.445610315 0.246495873 36.1874046
0.445610315 0.246495873 36.6731453
0.445610315 0.246495873 37.1588821
0.445610315 0.246495873 37.644619
0.445610315 0.246495873 38.1303558
0.445610315 0.246495873 38.6160927
0.445610315 0.246495873 39.1018295
0.445610315 0.246495873 39.5875664
0.445610315 0.246495873 40.0733032
0.445610315 0.246495873 40.5590401
0.445610315 0.246495873 41.0447769
0.445610315 0.246495873 41.5305138
0.445610315 0.246495873 42.0162506
0.445610315 0.246495873 42.5019875
0.445610315 0.246495873 42.9877281
0.445610315 0.246495873 43.473465
0.445610315 0.246495873 43.9592018
0.445610315 0.246495873 44.4449387
0.445610315 0.246495873 44.9306755
0.445610315 0.246495873 45.4164124
0.445610315 0.246495873 45.9021492
0.445610315 0.246495873 46.387886
0.445610315 0.246495873 46.8736229
0.445610315 0.246495873 47.3593597
0.445610315 0.246495873 47.8450966
0.445610315 0.246495873 48.3308334
0.445610315 0.246495873 48.8165703
0.445610315 0.246495873 49.3023109
0.445610315 0.246495873 49.7880478
0.445610315 0.246495873 50.2737846
0.445610315 0.246495873 50.7595215
0.445610315 0.246495873 51.2452583
0.445610315 0.246495873 51.7309952
0.445610315 0.246495873 52.216732
0.445610315 0.246495873 52.7024689
0.445610315 0.246495873 53.1882057
0.445610315 0.246495873 53.6739426
0.445610315 0.246495873 54.1596794
0.445610315 0.246495873 54.6454163
0.445610315 0.246495873 55.1311531
0.445610315 0.246495873 55.61689
0.445610315 0.246495873 56.1026306
0.445610315 0.246495873 56.5883675
0.445610315 0.246495873 57.0741043
0.445610315 0.246495873 57.5598412
0.445610315 0.246495873 58.045578
0.445610315 0.246495873 58.5313148
0.445610315 0.246495873 59.0170517
0.445610315 0.246495873 59.5027885
0.445610315 0.246495873 59.9885254
0.445610315 0.246495873 60.4742622
0.0213462412 0.422231823 60.9599991
-0.154389694 0.846495867 60.9599991
0.0213462412 1.27075994 60.9599991
0.445610315 1.44649589 60.4742622
0.445610315 1.44649589 59.9885254
0.445610315 1.44649589 59.5027885
0.445610315 1.44649589 59.0170517
0.445610315 1.44649589 58.5313148
0.445610315 1.44649589 58.045578
0.445610315 1.44649589 57.5598412
0.445610315 1.44649589 57.0741043
0.445610315 1.44649589 56.5883675
0.445610315 1.44649589 56.1026306
0.445610315 1.44649589 55.61689
0.445610315 1.44649589 55.1311531
0.445610315 1.44649589 54.6454163
0.445610315 1.44649589 54.1596794
0.445610315 1.44649589 53.6739426
0.445610315 1.44649589 53.1882057
0.445610315 1.44649589 52.7024689
[...]
CELL_DATA 9483
SCALARS TALLY_TAG double 1
LOOKUP_TABLE default
0.01415934859 
0.01218952135 
0.01374771655 
0.02302214984 
0.01104897374 
0.01882130428 
0.005787993777 
0.007714672416 
0.007139067993 
0.006746867351 
0.007539326042 
0.007407169293 
0.008763873513 
0.01297370176 
0.01080801769 
0.009046221797 
0.01077830359 
0.01213247689 
0.008950183709 
0.005694511284 
0.00957901207 
0.005675606619 
0.006839079472 
0.009289696928 
0.01318636078 
0.009891706655 
0.008755733277 
0.01369848972 
0.01193420066 
0.01149494911 
0.01063429715 
0.01359082215 
0.01051820578 
0.01343982285 
0.00406075589 
0.007348645128 
0.01506176805 
0.0200002167 
0.01136635559 
0.009681017477 
0.009961987656 
0.01097759294 
0.01017582238 
0.02308114469 
0.01667410394 
0.007619176677 
0.008900069634 
0.007516749789 
0.006965935335 
0.009177536562 
0.01491498601 
0.008213707524 
0.004181024726 
0.00713483362 
0.008269317334 
0.003555449638 
0.006165219837 
0.008191838748 
0.007834843035 
0.008913786654 
0.009987034428 
0.004954184015 
0.008254021067 
0.009154384852 
0.0120798761 
0.0059756813 
0.01193226339 
0.01202058393 
0.01319666449 
0.007501704337 
0.01069943558 
0.01141119544 
0.006188918246 
0.004513201844 
0.004042525497 
0.004486797451 
0.003785046714 
0.0048586333 
0.007740764048 
0.003073444952 
0.008907808709 
0.006660016053 
0.006825674362 
0.005111031743 
0.005194131434 
0.002574239981 
0.006789502344 
0.009797599711 
0.009652408187 
0.006155308575 
0.008219444718 
0.01112762415 
0.007611366963 
0.007465865226 
0.01247211282 
0.009898714309 
0.008393969991 
0.01010086369 
0.007362150072 
0.009950327645 
0.006519755258 
0.007869511253 
0.007299440253 
0.007102189406 
0.007164180238 
0.00344803056 
0.00670944104 
0.01037159966 
0.007802321379 
0.01007600857 
0.005461769836 
0.005040578959 
0.008349651497 
0.006494468012 
0.00840371745 
0.008048622599 
0.01143520964 
0.006156153025 
0.009400819159 
0.004520264472 
0.007777089668 
0.007171883891 
0.004945035244 
0.009100225804 
0.008873553084 
0.00886039101 
0.01350778728 
0.003096253385 
0.00809861075 
0.00638666115 
0.005379263315 
0.005078760164 
0.009481835226 
0.01109705814 
0.01336643541 
0.007657082621 
0.01271368066 
0.0117133991 
0.01325312903 
0.01399697666 
0.01285066954 
0.01054835849 
0.01201901537 
0.0108515763 
0.006019696751 
0.0212439577 
0.00737298022 
0.009277237429 
0.01397853038 
0.01187140577 
0.006644296955 
0.007666005756 
0.01793519272 
0.01881716247 
0.01415513941 
0.006334923001 
0.01161618438 
0.005112612838 
0.01445940384 
0.009112913572 
0.005835575972 
0.006788082197 
0.008721272174 
0.006869427564 
0.008693334324 
0.007801116757 
0.006206001621 
0.004663583702 
0.008675222711 
0.007441583401 
0.005223690312 
0.006708375117 
0.01176322438 
0.01728594133 
0.02196696985 
0.009705645462 
0.0151508284 
0.009463592323 
0.0091381521 
0.01076800698 
0.01020818648 
0.008876623275 
0.008066711395 
0.007752272783 
0.01436638349 
0.007420247319 
0.006979393047 
0.005508335089 
0.01022204416 
0.007499019949 
0.004185845032 
0.006657113013 
0.007478595098 
0.006264627543 
0.006762736571 
0.00484051507 
0.009165178507 
0.009810507151 
0.009206521795 
0.003924319481 
0.009574278368 
0.005116920598 
0.009871015305 
0.008630699845 
0.006618394981 
0.01992454457 
0.009710065822 
0.006405958577 
0.009531171545 
0.008277998346 
0.01228173312 
0.009757337117 
0.00503698288 
0.008598649406 
0.009205173759 
0.007072702017 
0.006659944104 
0.0105022229 
0.009757182471 
0.01337038378 
0.005074350056 
0.006952587748 
0.01008465063 
0.005654992404 
0.01132820166 
0.01004640782 
0.008617744428 
0.01284845099 
0.01044684726 
0.007428961507 
0.007521831048 
0.006469742925 
0.01145475436 
0.005326893808 
0.008377884138 
0.00696479631 
0.006114385188 
0.008022989616 
0.007267093315 
0.005954743982 
0.004672436055 
0.01041914447 
0.006522843805 
0.008807518131 
0.01199230815 
0.004677022569 
0.00476210665 
0.007474249704 
0.0057648392 
0.01018071464 
0.007070829048 
0.005723262782 
0.004884276625 
0.005774465658 
0.01081808962 
0.01032411671 
0.01503120313 
0.009423913991 
0.01093203766 
0.007401632379 
0.004680737841 
0.009751454269 
0.009117715725 
0.009039090322 
0.007595997625 
0.009615750377 
0.008736516837 
0.01299694072 
0.009900040695 
0.009319846147 
0.01612104184 
0.005537216242 
0.004748347298 
0.00874781912 
0.008069731245 
0.00529597778 
0.007244366871 
0.01151748019 
0.01215956236 
0.0057891622 
0.006327730033 
0.00724707258 
0.008329354994 
0.009000812917 
0.01680320213 
0.008878061625 
0.009488774521 
0.007488231936 
0.008271014529 
0.01257268052 
0.01098607068 
0.01169902086 
0.01154583476 
0.009928503834 
0.006916823853 
0.008395228554 
0.02133458213 
0.0126008035 
0.007459974693 
0.008064422091 
0.01247367283 
0.005730157694 
0.003680752199 
0.009779959525 
0.007072440004 
0.01052991075 
0.01435267457 
0.004146578876 
0.006601760144 
0.0075361795 
0.009149666691 
0.005613460063 
0.00595918953 
0.006427028549 
0.003517840363 
0.0197678417 
0.00516054118 
0.00923214428 
0.01083549849 
0.007363744783 
0.008041166151 
0.004161949346 
0.005698377796 
0.007320968152 
0.006134039036 
0.007849650808 
0.01085659798 
0.006172759534 
0.01136340957 
0.008596787798 
0.01043792527 
0.01011245455 
0.006855820627 
0.004800948993 
0.01004785689 
0.0105842133 
0.007668915449 
0.01090121746 
0.008783446866 
0.004363161078 
0.005661281535 
0.007620875907 
0.006393225873 
0.004764324044 
0.004601630673 
0.005015241722 
0.007203128757 
0.006218494222 
0.006263194396 
0.005646071378 
0.004069648053 
0.004940984492 
0.004522273134 
0.004943231849 
0.005207246542 
0.007267542737 
0.00848384716 
0.009029257343 
0.005026626441 
0.006712164696 
0.008715632177 
0.01160245085 
0.009520830243 
0.01519398988 
0.01015505455 
0.0214434871 
0.006798128062 
0.006296492996 
0.01104660289 
0.01817860393 
0.008543434574 
0.003716856206 
0.005073974927 
0.01184792333 
0.005100808397 
0.003523975689 
0.004256444143 
0.005302099001 
0.004524904369 
0.006332733527 
0.007399410939 
0.007360128083 
0.01190575067 
0.007839811183 
0.00369121921 
0.009226522106 
0.009700850128 
0.01222176977 
0.0209402898 
0.006045878767 
0.003665045661 
0.01387588249 
0.01120378043 
0.00918133618 
0.01819616169 
0.009570232294 
0.008614584713 
0.003284535902 
0.004632417249 
0.00592844497 
0.007545483246 
0.004147172834 
0.00397815565 
0.006370089119 
0.005551520546 
0.008291866047 
0.004403102746 
0.002767676501 
0.009046551287 
0.009995645097 
0.006842082124 
0.003843997706 
0.008672304659 
0.007280272344 
0.008182642982 
0.01189675413 
0.009026200561 
0.01526479091 
0.01119036968 
0.006065026391 
0.01449686553 
0.02611846414 
0.004619641973 
0.007754863694 
0.005767519985 
0.005036686761 
0.008440189818 
0.007678388125 
0.004570400936 
0.008175177242 
0.005655815969 
0.009295431206 
0.005352981018 
0.008170460211 
0.01002636608 
0.01138933553 
0.01427448923 
0.01009751601 
0.009820895534 
0.00606988529 
0.005670709495 
0.005733599972 
0.003942066299 
0.005639757461 
0.007869952865 
0.005658238245 
0.005008058423 
0.009369358983 
0.01557666186 
0.01556218195 
0.01504893875 
0.01094438455 
0.01245122305 
0.009440956142 
0.007156979139 
0.002829983555 
0.003370183614 
0.009430371499 
0.01062434276 
0.007758244974 
0.006848540911 
0.01049272984 
0.01339898367 
0.01101927648 
0.009444121795 
0.01256234733 
0.01204752906 
0.01081964205 
0.01017480345 
0.01316834431 
0.009135323799 
0.01074473581 
0.006136457695 
0.004555595028 
0.006108159481 
0.01653975486 
0.004336131722 
0.009328602525 
0.0133939262 
0.01090100631 
0.01647701111 
0.0156398741 
0.009069767712 
0.01780470278 
0.008862818487 
0.00916495696 
0.01231536059 
0.009018621631 
0.005340303323 
0.006123691577 
0.01305449269 
0.00773736253 
0.004680786283 
0.01802567387 
0.007037741469 
0.01014926104 
0.01672730046 
0.01775269728 
0.01962054154 
0.00912915621 
0.008340331479 
0.006345447374 
0.003703993395 
0.003988148512 
0.008697553438 
0.007031661957 
0.007917950195 
0.01144483625 
0.01040667972 
0.007403944871 
0.006964566273 
0.004705313303 
0.01407656304 
0.01104969976 
0.005617176536 
0.009617534417 
0.006934002632 
0.005389538638 
0.005768768008 
0.004631395163 
0.0113768348 
0.004200928393 
0.008256168788 
0.0119296139 
0.008881112772 
0.006635714273 
0.006988860763 
0.00594768508 
0.005808458518 
0.006322181846 
0.009026779674 
0.008406713406 
0.02023787475 
0.009760201336 
0.008619192236 
0.0108789894 
0.006279602528 
0.003142856893 
0.007180687367 
0.008342224898 
0.01544723213 
0.007041558002 
0.01014783054 
0.006056770836 
0.009059141149 
0.003405832051 
0.003688332528 
0.003748762134 
0.008717898868 
0.00445747768 
0.006525133111 
0.009616458744 
0.005290953091 
0.01366579885 
0.01176503279 
0.01168425684 
0.009606273011 
0.007006652244 
0.003484618529 
0.01016717914 
0.01219506353 
0.004359559188 
0.01359166934 
0.00900850699 
0.005234056348 
0.005691888008 
0.01196629856 
0.01288757913 
0.00773173921 
0.01519458929 
0.00742410379 
0.01176684402 
0.02086095544 
0.01363996899 
0.02061779478 
0.0140110541 
0.02158764531 
0.005494200529 
0.006918586686 
0.005591611797 
0.007058708813 
0.005560064459 
0.01057045056 
0.006369479695 
0.0165760457 
0.01315711882 
0.008183330671 
0.006416201438 
0.006659727666 
0.008412099427 
0.01400912157 
0.00900468742 
0.008733436248 
0.008578222836 
0.007581352479 
0.005250855841 
0.007576314127 
0.006413349963 
0.00458401692 
0.005516792804 
0.00575591308 
0.01054801196 
0.01019846944 
0.007425002073 
0.007797201949 
0.008274680323 
0.005231914245 
0.006491225522 
0.003960615161 
0.01210620603 
0.006388340616 
0.009886365945 
0.01552126847 
0.007615666171 
0.008525858323 
0.009553096991 
0.004898460742 
0.004787471269 
0.008526385157 
0.009196327407 
0.008216646386 
0.007433568121 
0.00555312116 
0.01068506348 
0.007471256706 
0.007412793207 
0.006632694218 
0.004963897182 
0.02245920389 
0.005118733191 
0.007163894634 
0.009129860673 
0.005165397189 
0.007778058144 
0.007507357139 
0.00585103801 
0.003324337787 
0.008552457425 
0.007883242929 
0.005560636693 
0.00808358227 
0.006427181868 
0.00862392115 
0.009056035865 
0.01171692876 
0.009879126738 
0.007567404902 
0.0044647875 
0.009472951924 
0.006729370023 
0.01231776115 
0.00582658331 
0.007510723344 
0.007498077075 
0.00788419936 
0.0121708036 
0.007171241135 
0.003082548669 
0.006543539604 
0.005288173396 
0.00316568694 
0.003589897579 
0.01080251867 
0.007614757529 
0.006486674745 
0.007720371301 
0.00559790217 
0.01129047132 
0.005794975781 
0.009383579525 
0.008868931846 
0.007957033514 
0.009529581207 
0.008047105444 
0.01523561385 
0.0121274444 
0.007049669582 
0.01127079435 
0.01393855873 
0.003821488704 
0.006789536938 
0.004981236007 
0.004973881536 
0.008164664247 
0.01567504811 
0.01569311346 
0.01152659718 
0.01133564679 
0.01326133923 
0.007195240923 
0.008836035078 
0.01557712865 
0.01226576565 
0.01010777411 
0.008643796268 
0.005605350143 
0.01186210768 
0.01771388214 
0.01497608508 
0.007339309075 
0.008996113577 
0.01074438797 
0.007759055078 
0.01217721094 
0.01255923968 
0.01139226156 
0.007774688384 
0.005217161895 
0.002444081224 
0.01328464083 
0.003741027887 
0.006937073283 
0.006561957708 
0.007233562996 
0.007781858721 
0.009485296499 
0.01019530072 
0.003175378559 
0.01348198992 
0.01388612465 
0.01329313713 
0.00827848365 
0.01265938813 
0.008674354172 
0.004292574493 
0.004720930084 
0.005864074558 
0.008778707485 
0.008202951515 
0.01384086048 
0.011132655 
0.006553848158 
0.01033436903 
0.006635235547 
0.009752339897 
0.01421189924 
0.007016436223 
0.01323571803 
0.007132065045 
0.008301762219 
0.01519810469 
0.00835545078 
0.01575579844 
0.005682145874 
0.006668313085 
0.005322741504 
0.007634770324 
0.007135009045 
0.005818210113 
0.009768119879 
0.01797055791 
0.006370768028 
0.006316288188 
0.007227638843 
0.01240426818 
0.008348214026 
0.006496665048 
0.008862246958 
0.01053722311 
0.01038768807 
0.01406670014 
0.007149880028 
0.006024264304 
0.00551838348 
0.00528896808 
0.00778034546 
0.01052089334 
0.01002744261 
0.006354916496 
0.005412933175 
0.013543235 
0.01098138311 
0.004778415637 
0.01695336208 
0.008307149735 
0.007956856976 
0.01040798174 
0.01335659398 
0.009614252106 
0.007768633233 
0.007251680191 
0.004459364136 
0.006601175204 
0.00373576957 
0.00340607654 
0.0124670305 
0.003932757804 
0.006931310269 
0.00789391585 
0.00379604385 
0.004806746815 
0.006141478859 
0.001850042427 
0.007660484347 
0.006455832942 
0.005145127029 
0.008947156975 
0.004982278118 
0.004473452461 
0.01167169441 
0.003277108801 
0.005581297002 
0.004776855735 
0.007110528654 
0.006915086911 
0.009182238221 
0.003624497018 
0.004260669619 
0.008051995359 
0.009983591002 
0.008816490021 
0.01279336713 
0.01212352602 
0.008272839661 
0.007546172324 
0.01901533658 
0.01918840538 
0.005958674242 
0.008262504059 
0.007713935947 
0.01276692689 
0.009328231524 
0.009419508093 
0.006466433879 
0.003786727065 
0.004411879244 
0.00659470824 
0.005249902796 
0.00464678655 
0.006063083144 
0.004371593698 
0.005853832515 
0.009521022215 
0.01029373314 
0.01312702376 
0.01126876286 
0.01014874885 
0.007868950898 
0.007397440212 
0.004941653112 
0.007021761011 
0.01219295487 
0.004946045995 
0.006569125924 
0.0113047 
0.01014257974 
0.002727338396 
0.005447392264 
0.0106989804 
0.009067003548 
0.006913958323 
0.007387231224 
0.01390256662 
0.005354002046 
0.008722696366 
0.007332705724 
0.006055782037 
0.004153919622 
0.005553568539 
0.005366032843 
0.005390172775 
0.008088842226 
0.01245389327 
0.009588562862 
0.01362752004 
0.005893934545 
0.01263864643 
0.01341622655 
0.006562743894 
0.01315815632 
0.01544430054 
0.008319155894 
0.009358171245 
0.01115953538 
0.008896345887 
0.009325366743 
0.009026041867 
0.004959142162 
0.006623200583 
0.003990630117 
0.005909894563 
0.01228283426 
0.00643897908 
0.007054609388 
0.01126608415 
0.0112782218 
0.004424006795 
0.005932666902 
0.003544046846 
0.01600814575 
0.00456578004 
0.01154213124 
0.006486178811 
0.009581313667 
0.006734916772 
0.008777676902 
0.006129932403 
0.02372524424 
0.009556556149 
0.005338086813 
0.004263773421 
0.006858348294 
0.01453786368 
0.01597226647 
0.01854036095 
0.01396300615 
0.01071579008 
0.008882639749 
0.004993119772 
0.008568674736 
0.005238141886 
0.008022357332 
0.005242988148 
0.01454929451 
0.01254792705 
0.005930153761 
0.004610250393 
0.007084312644 
0.00519607701 
0.01070779513 
0.01264926284 
0.01150396737 
0.006116321754 
0.01047743226 
0.003357509603 
0.01467674894 
0.009518955245 
0.0189282558 
0.01417060369 
0.007213735325 
0.01052452381 
0.006115686149 
0.004168596148 
0.004463456827 
0.008459367079 
0.006515012219 
0.005894613389 
0.005899471946 
0.00820776147 
0.01001506154 
0.006080452169 
0.009946570484 
0.01592137343 
0.00551968093 
0.007573838579 
0.007607350095 
0.008689666933 
0.01230989608 
0.008298883981 
0.01126089339 
0.006477056211 
0.009122056305 
0.009878612329 
0.005211847939 
0.011031324 
0.009657271336 
0.01047273873 
0.0136834831 
0.008737985395 
0.003065521121 
0.01022894936 
0.0169955632 
0.005949813011 
0.005460016579 
0.01206087164 
0.004959634253 
0.006419572596 
0.006676200402 
0.006004660169 
0.005849113356 
0.003939586359 
0.01128744054 
0.01250202212 
0.0117215736 
0.01058117076 
0.01253857657 
0.01286416045 
0.006648950276 
0.008533804518 
0.005129491496 
0.008031274191 
0.008747040116 
0.01768233387 
0.009374623409 
0.01150177843 
0.008957645912 
0.003630792918 
0.003618581867 
0.007525923587 
0.006171285875 
0.004241396941 
0.007960507771 
0.009232848396 
0.00500759893 
0.007469923442 
0.009743905682 
0.007965372867 
0.01205048834 
0.01339078926 
0.01300697121 
0.006018062226 
0.00901404905 
0.008253940971 
0.01108014667 
0.009217663987 
0.006141643921 
0.006285726446 
0.007120999266 
0.01161277548 
0.003046292569 
0.006564598324 
0.006190360059 
0.005640797555 
0.006293888724 
0.007228414975 
0.01119416365 
0.01370740464 
0.0119441799 
0.01194316185 
0.01187932062 
0.007499852185 
0.009254379782 
0.01069630832 
0.01351170492 
0.01634686675 
0.01471187126 
0.008977478287 
0.008647249814 
0.009746822217 
0.006680481739 
0.004570111795 
0.01014843162 
0.005074735906 
0.00942023707 
0.009501088864 
0.00603764566 
0.002842417025 
0.003771258326 
0.002738980079 
0.005930367853 
0.005283830832 
0.003758989225 
0.0071023227 
0.008418668177 
0.01219103867 
0.005209326969 
0.008215838918 
0.005706137 
0.004349105778 
0.004583351578 
0.008006129413 
0.0069656893 
0.004015901227 
0.006347167064 
0.007596874025 
0.005028669073 
0.006343831294 
0.006601936925 
0.006049073604 
0.005985298192 
0.009225989423 
0.004336220552 
0.006998454518 
0.004735169812 
0.008645265939 
0.006840506966 
0.007881268578 
0.005601866177 
0.0104782112 
0.01017804133 
0.008067632004 
0.01149859323 
0.003830804106 
0.01135411824 
0.00819766728 
0.006233872373 
0.006689497717 
0.009687813556 
0.005572795717 
0.00689289911 
0.009026705063 
0.006493014544 
0.009964732647 
0.004636020211 
0.003280580078 
0.006404142939 
0.008255446969 
0.01118715078 
0.005824221689 
0.0107644664 
0.01035178244 
0.01653131557 
0.008793327998 
0.005003307745 
0.008216361741 
0.01034163342 
0.00624028589 
0.00461296453 
0.005613677921 
0.01156549808 
0.01698964327 
0.010186093 
0.009418934122 
0.007213099227 
0.007421501128 
0.007222166236 
0.009225498472 
0.008496113272 
0.005558987358 
0.006819687408 
0.01541150813 
0.006404169449 
0.005947317813 
0.01480108281 
0.009165843234 
0.009622075218 
0.005699234353 
0.006403797418 
0.002459232903 
0.005566520108 
0.008816360607 
0.004866745845 
0.003734721318 
0.008508694953 
0.008583825859 
0.009354947647 
0.007787311011 
0.011749569 
0.005297213791 
0.01403205766 
0.008085971121 
0.01302457595 
0.01485122693 
0.009490871682 
0.009962098319 
0.01294263818 
0.01180173613 
0.01066601064 
0.007059155017 
0.008285430912 
0.004441823681 
0.003415297765 
0.01019991056 
0.009094445949 
0.005895288116 
0.003370308018 
0.007190496936 
0.009638822284 
0.006807171978 
0.009523562175 
0.01589714801 
0.01419761351 
0.006501705386 
0.006277687207 
0.009711633308 
0.01534255629 
0.007375957308 
0.00501247767 
0.009755921807 
0.006622273493 
0.007443653532 
0.007073707892 
0.006948196531 
0.006907181516 
0.009729549257 
0.01230381616 
0.01460123579 
0.006105939184 
0.00601901354 
0.007185906447 
0.006829941464 
0.006416051234 
0.006695023026 
0.007796162912 
0.01240809425 
0.01717249975 
0.008316451732 
0.007389458322 
0.00594525431 
0.007564277956 
0.005202995705 
0.005904430427 
0.004722640342 
0.01100765963 
0.01794841848 
0.00469186613 
0.008067490784 
0.006754165184 
0.007293356651 
0.01375531934 
0.007962459874 
0.00698671887 
0.008910001762 
0.01178208412 
0.01265580459 
0.01666770467 
0.01270670583 
0.008514907137 
0.005692161074 
0.01356399266 
0.01325156158 
0.004194425563 
0.008234417558 
0.005637334585 
0.004354377456 
0.002592422535 
0.01438486785 
0.006135200116 
0.00235733103 
0.01097839617 
0.006024382298 
0.01030582125 
0.009958791469 
0.003719575651 
0.005677713256 
0.006201338352 
0.006939281197 
0.01002049527 
0.009934537703 
0.009674998079 
0.004976910622 
0.00741650883 
0.006970858526 
0.003048475823 
0.009693174778 
0.004353178395 
0.003596271746 
0.006794772874 
0.005009814299 
0.007003366089 
0.00569799292 
0.005640950448 
0.009851416062 
0.008956333632 
0.006626075671 
0.01372857253 
0.01772841933 
0.006117543562 
0.009648164124 
0.009901712568 
0.004114201812 
0.00224130728 
0.006058517585 
0.008353814658 
0.01504117384 
0.007409609498 
0.007154356778 
0.005762904773 
0.006384000611 
0.007920818398 
0.01071000162 
0.009873188077 
0.01208248261 
0.004208638709 
0.009256435603 
0.01366474838 
0.007960983661 
0.01085831359 
0.007180933764 
0.005245138706 
0.007416497221 
0.007476090015 
0.009120644167 
0.007222092059 
0.009123451337 
0.006324809491 
0.00572946532 
0.007651188998 
0.004742061697 
0.007592431309 
0.009041535638 
0.0053498838 
0.007579508247 
0.00508565072 
0.006422016721 
0.00681527956 
0.003926639049 
0.02014733814 