# vtk DataFile Version 3.0
MOAB 4.6.0
ASCII
DATASET UNSTRUCTURED_GRID
POINTS 2806 double
-0.840952218 -0.152589679 -60.9600182
-0.840952218 1.04741037 -60.9600182
-0.840952218 -0.152589679 60.9599991
-0.840952218 1.04741037 60.9599991
-1.26521635 0.0231462456 -60.9600182
-1.4409523 0.447410315 -60.9600182
-1.26521635 0.871674359 -60.9600182
-0.416688174 0.871674359 -60.9600182
-0.240952253 0.447410315 -60.9600182
-0.416688174 0.0231462456 -60.9600182
-0.840952218 -0.152589679 -60.4742813
-0.840952218 -0.152589679 -59.9885445
-0.840952218 -0.152589679 -59.5028076
-0.840952218 -0.152589679 -59.0170708
-0.840952218 -0.152589679 -58.5313339
-0.840952218 -0.152589679 -58.0455971
-0.840952218 -0.152589679 -57.5598602
-0.840952218 -0.152589679 -57.0741234
-0.840952218 -0.152589679 -56.5883865
-0.840952218 -0.152589679 -56.1026497
-0.840952218 -0.152589679 -55.6169128
-0.840952218 -0.152589679 -55.131176
-0.840952218 -0.152589679 -54.6454391
-0.840952218 -0.152589679 -54.1596985
-0.840952218 -0.152589679 -53.6739616
-0.840952218 -0.152589679 -53.1882248
-0.840952218 -0.152589679 -52.7024879
-0.840952218 -0.152589679 -52.2167511
-0.840952218 -0.152589679 -51.7310143
-0.840952218 -0.152589679 -51.2452774
-0.840952218 -0.152589679 -50.7595406
-0.840952218 -0.152589679 -50.2738037
-0.840952218 -0.152589679 -49.7880669
-0.840952218 -0.152589679 -49.30233
-0.840952218 -0.152589679 -48.8165932
-0.840952218 -0.152589679 -48.3308563
-0.840952218 -0.152589679 -47.8451157
-0.840952218 -0.152589679 -47.3593788
-0.840952218 -0.152589679 -46.873642
-0.840952218 -0.152589679 -46.3879051
-0.840952218 -0.152589679 -45.9021683
-0.840952218 -0.152589679 -45.4164314
-0.840952218 -0.152589679 -44.9306946
-0.840952218 -0.152589679 -44.4449577
-0.840952218 -0.152589679 -43.9592209
-0.840952218 -0.152589679 -43.473484
-0.840952218 -0.152589679 -42.9877472
-0.840952218 -0.152589679 -42.5020103
-0.840952218 -0.152589679 -42.0162735
-0.840952218 -0.152589679 -41.5305328
-0.840952218 -0.152589679 -41.044796
-0.840952218 -0.152589679 -40.5590591
-0.840952218 -0.152589679 -40.0733223
-0.840952218 -0.152589679 -39.5875854
-0.840952218 -0.152589679 -39.1018486
-0.840952218 -0.152589679 -38.6161118
-0.840952218 -0.152589679 -38.1303749
-0.840952218 -0.152589679 -37.6446381
-0.840952218 -0.152589679 -37.1589012
-0.840952218 -0.152589679 -36.6731644
-0.840952218 -0.152589679 -36.1874275
-0.840952218 -0.152589679 -35.7016907
-0.840952218 -0.152589679 -35.2159538
-0.840952218 -0.152589679 -34.7302132
-0.840952218 -0.152589679 -34.2444763
-0.840952218 -0.152589679 -33.7587395
-0.840952218 -0.152589679 -33.2730026
-0.840952218 -0.152589679 -32.7872658
-0.840952218 -0.152589679 -32.3015289
-0.840952218 -0.152589679 -31.8157921
-0.840952218 -0.152589679 -31.3300552
-0.840952218 -0.152589679 -30.8443184
-0.840952218 -0.152589679 -30.3585815
-0.840952218 -0.152589679 -29.8728428
-0.840952218 -0.152589679 -29.3871059
-0.840952218 -0.152589679 -28.9013691
-0.840952218 -0.152589679 -28.4156322
-0.840952218 -0.152589679 -27.9298954
-0.840952218 -0.152589679 -27.4441586
-0.840952218 -0.152589679 -26.9584198
-0.840952218 -0.152589679 -26.472683
-0.840952218 -0.152589679 -25.9869461
-0.840952218 -0.152589679 -25.5012093
-0.840952218 -0.152589679 -25.0154724
-0.840952218 -0.152589679 -24.5297356
-0.840952218 -0.152589679 -24.0439987
-0.840952218 -0.152589679 -23.55826
-0.840952218 -0.152589679 -23.0725231
-0.840952218 -0.152589679 -22.5867863
-0.840952218 -0.152589679 -22.1010494
-0.840952218 -0.152589679 -21.6153126
-0.840952218 -0.152589679 -21.1295757
-0.840952218 -0.152589679 -20.6438389
-0.840952218 -0.152589679 -20.1581001
-0.840952218 -0.152589679 -19.6723633
-0.840952218 -0.152589679 -19.1866264
-0.840952218 -0.152589679 -18.7008896
-0.840952218 -0.152589679 -18.2151527
-0.840952218 -0.152589679 -17.7294159
-0.840952218 -0.152589679 -17.2436771
-0.840952218 -0.152589679 -16.7579403
-0.840952218 -0.152589679 -16.2722034
-0.840952218 -0.152589679 -15.7864666
-0.840952218 -0.152589679 -15.3007298
-0.840952218 -0.152589679 -14.814992
-0.840952218 -0.152589679 -14.3292551
-0.840952218 -0.152589679 -13.8435183
-0.840952218 -0.152589679 -13.3577814
-0.840952218 -0.152589679 -12.8720436
-0.840952218 -0.152589679 -12.3863068
-0.840952218 -0.152589679 -11.9005699
-0.840952218 -0.152589679 -11.4148321
-0.840952218 -0.152589679 -10.9290953
-0.840952218 -0.152589679 -10.4433584
-0.840952218 -0.152589679 -9.95762062
-0.840952218 -0.152589679 -9.47188377
-0.840952218 -0.152589679 -8.98614693
-0.840952218 -0.152589679 -8.50041008
-0.840952218 -0.152589679 -8.01467228
-0.840952218 -0.152589679 -7.52893543
-0.840952218 -0.152589679 -7.04319811
-0.840952218 -0.152589679 -6.55746126
-0.840952218 -0.152589679 -6.07172394
-0.840952218 -0.152589679 -5.58598709
-0.840952218 -0.152589679 -5.10024977
-0.840952218 -0.152589679 -4.61451244
-0.840952218 -0.152589679 -4.1287756
-0.840952218 -0.152589679 -3.64303827
-0.840952218 -0.152589679 -3.15730119
-0.840952218 -0.152589679 -2.6715641
-0.840952218 -0.152589679 -2.18582702
-0.840952218 -0.152589679 -1.70008981
-0.840952218 -0.152589679 -1.21435273
-0.840952218 -0.152589679 -0.728615582
-0.840952218 -0.152589679 -0.242878437
-0.840952218 -0.152589679 0.242858693
-0.840952218 -0.152589679 0.728595853
-0.840952218 -0.152589679 1.21433294
-0.840952218 -0.152589679 1.70007014
-0.840952218 -0.152589679 2.18580723
-0.840952218 -0.152589679 2.67154431
-0.840952218 -0.152589679 3.1572814
-0.840952218 -0.152589679 3.64301872
-0.840952218 -0.152589679 4.12875557
-0.840952218 -0.152589679 4.61449289
-0.840952218 -0.152589679 5.10023022
-0.840952218 -0.152589679 5.58596706
-0.840952218 -0.152589679 6.07170439
-0.840952218 -0.152589679 6.55744123
-0.840952218 -0.152589679 7.04317856
-0.840952218 -0.152589679 7.52891588
-0.840952218 -0.152589679 8.01465321
-0.840952218 -0.152589679 8.50039005
-0.840952218 -0.152589679 8.9861269
-0.840952218 -0.152589679 9.47186375
-0.840952218 -0.152589679 9.95760155
-0.840952218 -0.152589679 10.4433384
-0.840952218 -0.152589679 10.9290752
-0.840952218 -0.152589679 11.414813
-0.840952218 -0.152589679 11.9005499
-0.840952218 -0.152589679 12.3862867
-0.840952218 -0.152589679 12.8720245
-0.840952218 -0.152589679 13.3577614
-0.840952218 -0.152589679 13.8434982
-0.840952218 -0.152589679 14.3292351
-0.840952218 -0.152589679 14.8149729
-0.840952218 -0.152589679 15.3007097
-0.840952218 -0.152589679 15.7864466
-0.840952218 -0.152589679 16.2721844
-0.840952218 -0.152589679 16.7579212
-0.840952218 -0.152589679 17.2436581
-0.840952218 -0.152589679 17.7293949
-0.840952218 -0.152589679 18.2151318
-0.840952218 -0.152589679 18.7008705
-0.840952218 -0.152589679 19.1866074
-0.840952218 -0.152589679 19.6723442
-0.840952218 -0.152589679 20.1580811
-0.840952218 -0.152589679 20.6438179
-0.840952218 -0.152589679 21.1295547
-0.840952218 -0.152589679 21.6152916
-0.840952218 -0.152589679 22.1010303
-0.840952218 -0.152589679 22.5867672
-0.840952218 -0.152589679 23.072504
-0.840952218 -0.152589679 23.5582409
-0.840952218 -0.152589679 24.0439777
-0.840952218 -0.152589679 24.5297146
-0.840952218 -0.152589679 25.0154533
-0.840952218 -0.152589679 25.5011902
-0.840952218 -0.152589679 25.986927
-0.840952218 -0.152589679 26.4726639
-0.840952218 -0.152589679 26.9584007
-0.840952218 -0.152589679 27.4441376
-0.840952218 -0.152589679 27.9298744
-0.840952218 -0.152589679 28.4156132
-0.840952218 -0.152589679 28.90135
-0.840952218 -0.152589679 29.3870869
-0.840952218 -0.152589679 29.8728237
-0.840952218 -0.152589679 30.3585606
-0.840952218 -0.152589679 30.8442974
-0.840952218 -0.152589679 31.3300343
-0.840952218 -0.152589679 31.815773
-0.840952218 -0.152589679 32.3015099
-0.840952218 -0.152589679 32.7872467
-0.840952218 -0.152589679 33.2729836
-0.840952218 -0.152589679 33.7587204
-0.840952218 -0.152589679 34.2444572
-0.840952218 -0.152589679 34.7301941
-0.840952218 -0.152589679 35.2159309
-0.840952218 -0.152589679 35.7016678
-0.840952218 -0.152589679 36.1874046
-0.840952218 -0.152589679 36.6731453
-0.840952218 -0.152589679 37.1588821
-0.840952218 -0.152589679 37.644619
-0.840952218 -0.152589679 38.1303558
-0.840952218 -0.152589679 38.6160927
-0.840952218 -0.152589679 39.1018295
-0.840952218 -0.152589679 39.5875664
-0.840952218 -0.152589679 40.0733032
-0.840952218 -0.152589679 40.5590401
-0.840952218 -0.152589679 41.0447769
-0.840952218 -0.152589679 41.5305138
-0.840952218 -0.152589679 42.0162506
-0.840952218 -0.152589679 42.5019875
-0.840952218 -0.152589679 42.9877281
-0.840952218 -0.152589679 43.473465
-0.840952218 -0.152589679 43.9592018
-0.840952218 -0.152589679 44.4449387
-0.840952218 -0.152589679 44.9306755
-0.840952218 -0.152589679 45.4164124
-0.840952218 -0.152589679 45.9021492
-0.840952218 -0.152589679 46.387886
-0.840952218 -0.152589679 46.8736229
-0.840952218 -0.152589679 47.3593597
-0.840952218 -0.152589679 47.8450966
-0.840952218 -0.152589679 48.3308334
-0.840952218 -0.152589679 48.8165703
-0.840952218 -0.152589679 49.3023109
-0.840952218 -0.152589679 49.7880478
-0.840952218 -0.152589679 50.2737846
-0.840952218 -0.152589679 50.7595215
-0.840952218 -0.152589679 51.2452583
-0.840952218 -0.152589679 51.7309952
-0.840952218 -0.152589679 52.216732
-0.840952218 -0.152589679 52.7024689
-0.840952218 -0.152589679 53.1882057
-0.840952218 -0.152589679 53.6739426
-0.840952218 -0.152589679 54.1596794
-0.840952218 -0.152589679 54.6454163
-0.840952218 -0.152589679 55.1311531
-0.840952218 -0.152589679 55.61689
-0.840952218 -0.152589679 56.1026306
-0.840952218 -0.152589679 56.5883675
-0.840952218 -0.152589679 57.0741043
-0.840952218 -0.152589679 57.5598412
-0.840952218 -0.152589679 58.045578
-0.840952218 -0.152589679 58.5313148
-0.840952218 -0.152589679 59.0170517
-0.840952218 -0.152589679 59.5027885
-0.840952218 -0.152589679 59.9885254
-0.840952218 -0.152589679 60.4742622
-1.26521635 0.0231462456 60.9599991
-1.4409523 0.447410315 60.9599991
-1.26521635 0.871674359 60.9599991
-0.840952218 1.04741037 60.4742622
-0.840952218 1.04741037 59.9885254
[...]
CELL_DATA 9425
SCALARS TALLY_TAG double 1
LOOKUP_TABLE default
0.000483220637 
0.0004546286244 
0.0004580532348 
0.0007306873137 
0.0007368453284 
0.0006172347009 
0.000583506287 
0.0007034383252 
0.0004475578716 
0.0004998561532 
0.0004046370946 
0.0004388190536 
0.0005962842832 
0.0003874903632 
0.000212078806 
0.0003955889986 
0.0003331881134 
0.0003183974092 
0.0002385162039 
0.0006446931308 
0.0003937215058 
0.000860083663 
0.0002759708691 
0.0004740073122 
0.0005802301681 
0.0003170637154 
0.0004454073868 
0.0005043931128 
0.0006594017682 
0.0003643919198 
0.0004602389863 
0.0004037623195 
0.0004646484124 
0.0003334578223 
0.0006452928727 
0.0007044341122 
0.0002232146203 
0.0002989029849 
0.0005416439305 
0.0003045192407 
0.0003483180604 
0.0004042157363 
0.0006290400378 
0.0003038497434 
0.0002879335101 
0.0003622134461 
0.0002473875002 
0.0007597171772 
0.0002435349194 
0.0005866944877 
0.000558278688 
0.0003479959892 
0.0004675882479 
0.0005101756057 
0.0008407884091 
0.0001733076678 
0.0002897524695 
0.0006512586097 
0.0007760632589 
0.0004315583576 
0.0001838242311 
0.0002627774172 
0.0003004130884 
0.0001290077354 
0.0003459445953 
0.000285866501 
0.0006196542466 
0.0004210440756 
0.0003619463983 
0.0005276868972 
0.000578611047 
0.0005156976514 
0.0003586958577 
0.0002042594339 
0.0003202367904 
0.000438335064 
0.0003480600284 
0.0002951980725 
0.0004417513317 
0.0006427570106 
0.0003824328381 
0.000356321115 
0.0008586844401 
0.0005815598472 
0.0009985226076 
0.0006102239125 
0.0005652282381 
0.000283967273 
0.0003445841282 
0.0003938970463 
0.0008700457982 
0.0003405915043 
0.0004583497496 
0.0005367380569 
0.0005118754633 
0.0003428853631 
0.00054543441 
0.0003226722251 
0.0008251615659 
0.0003803583428 
0.0005525640425 
0.0004311279788 
0.0005025239883 
0.0005935125739 
0.0003887727081 
0.0002998878019 
0.0004331673302 
0.0004025519002 
0.0004520981681 
0.0003962768639 
0.0004948783995 
0.0006073293958 
0.0004868008994 
0.0004638455937 
0.0003197901002 
0.0007205597756 
0.0003178225827 
0.0005399320769 
0.0006769252085 
0.000401435618 
0.0004990419034 
0.0006294856471 
0.0007079311858 
0.0003266408065 
0.0003083493881 
0.0006697723338 
0.0004283774171 
0.0006453691574 
0.0008013147949 
0.0004974081961 
0.0003419979614 
0.0005251015497 
0.0002181052487 
0.0004236479231 
0.0003121427186 
0.0005292661594 
0.0004793252523 
0.0002930015897 
0.0004442208753 
0.0003576003786 
0.0007664308521 
0.0005564563882 
0.0005482171778 
0.0006773450631 
0.0005087272664 
0.0004838011678 
0.0007170638773 
0.0002984893764 
0.0007490795085 
0.0008329107668 
0.0004852466617 
0.000276303187 
0.0005717793615 
0.0003424794283 
0.0004380243005 
0.0001944508581 
0.0003766137617 
0.0004607095787 
0.0003769467612 
0.0002752711438 
0.0003430127929 
0.0004215560001 
0.0004143169532 
0.0004491308144 
0.0001385382491 
0.000366328629 
0.0003834165266 
0.0007755542067 
0.000362144788 
0.0005361239644 
0.0004936263148 
0.0004557058332 
0.0002722055043 
0.0002496713383 
0.000137127738 
0.0002431124945 
0.0003307024037 
0.0002706914016 
0.0002875238511 
0.0004228454709 
0.0003757923708 
0.0001884033475 
0.0008834698634 
0.0004222812998 
0.0005173250927 
0.0004046127162 
0.0006445566654 
0.0004857995076 
0.0002631812396 
0.0006373641203 
0.0007079456388 
0.0007823354375 
0.0002307629915 
0.0003664915306 
0.0002565232151 
0.0003297510051 
0.0001027849995 
0.0002809247977 
0.0002332331415 
0.0002574690169 
0.0007726703804 
0.0008375512406 
0.00060722788 
0.0004252029208 
0.0003718075709 
0.0004970461568 
0.0002554227759 
0.0002979760073 
0.0003910686629 
0.0002299206615 
0.0001855795861 
0.0003796551009 
0.000462220455 
0.0003761429052 
0.0003469624799 
0.0005316396594 
0.0006987518742 
0.0002114584285 
0.0002472324505 
0.0001663090009 
0.0002067061332 
0.0002903750097 
0.0003027710327 
0.0003678649009 
0.0002554303247 
0.0002324123332 
0.0003201723144 
0.0002924202421 
0.0001221745801 
0.0001314752513 
0.0002274148533 
0.0003392764207 
0.0005963259583 
0.0007487113449 
0.0003091634659 
0.0002621665034 
0.000566353082 
0.0005343587318 
0.0003312762546 
0.0005398871169 
0.0001876901429 
0.0003214748795 
0.0003168595353 
0.0002828185778 
0.0003458127009 
0.0001137033809 
0.0003471940331 
0.0003527661913 
0.0002495094042 
0.0004046002461 
0.0002937108332 
0.0003497078424 
0.0002134976502 
0.0005370961522 
0.0005710053414 
0.0003508672741 
0.000339724629 
0.0002689670942 
0.0004318374831 
0.0003579109156 
0.0003869039427 
0.0008356541188 
0.0002806854334 
0.0003213629182 
0.000606581163 
0.0003009117541 
0.0003278740284 
0.000321102505 
0.000355479045 
0.0002611310429 
0.0005026615426 
0.0001570093956 
0.0002988826871 
0.0003783143058 
0.0007051474902 
0.0003918949669 
0.0004304775554 
0.0005865952262 
0.0004624608371 
0.0003482337329 
0.0001736625424 
0.0002578068838 
0.0004591090707 
0.000420018799 
0.0003366687963 
0.0002280897128 
0.0004847250928 
0.0004573338786 
0.0002338108472 
0.0002589252278 
0.0006510171054 
0.0003813173921 
0.0004127616431 
0.0003929645335 
0.0004314322626 
0.0005127905804 
0.0001807229036 
0.0003992999004 
0.0002644860573 
0.0002277797723 
0.0001864261875 
0.000339404106 
0.000510079449 
0.0004934631031 
0.0001389559649 
0.0001699966227 
0.0003134111196 
0.0003171064 
0.0002609535671 
0.0004688846039 
0.000145253592 
0.0003368265027 
0.0003430602755 
0.0002100867094 
0.0002477270184 
0.0004274221243 
0.0003535054865 
0.0002893944719 
0.0004749014286 
0.0009329084458 
0.0003962226657 
0.0004656039277 
0.0007368170164 
0.0007530706433 
0.0001802615415 
0.0003447620244 
0.0004205398183 
0.0005294249504 
0.0006780195566 
0.0006609254746 
0.0003609749842 
0.0003471786903 
0.0003646926922 
0.000626788246 
0.0002762934012 
0.0002580239687 
0.0003534680207 
0.0003860812306 
0.0002783873068 
0.0003415901808 
0.0003462009862 
0.0002997726011 
0.0001563005595 
0.0001693787155 
0.0006931749765 
0.000220451068 
0.0003178719119 
0.0001395526944 
0.0002963361166 
0.0002468899948 
0.0001101665889 
0.0002469731558 
0.0002939761288 
0.0003799315198 
0.0004133537501 
0.0002731775062 
0.0003206208926 
0.0002602021039 
0.0002799216516 
0.0003142528791 
0.0003053806001 
0.0002897520371 
0.0002784472382 
0.0002600630443 
0.0003238768109 
0.0005623021883 
0.0006283495707 
0.0003578445832 
0.0003380382316 
0.0003873070425 
0.0001934239977 
0.0001866077788 
0.0005095119103 
0.0004356311659 
0.0001880730332 
0.0002480113894 
0.0002677098443 
0.0003626069702 
0.0003715418269 
0.0005580082691 
0.0007029917307 
0.0005009519855 
0.0003806907013 
0.0003590678471 
0.0005617393893 
0.0005630113824 
0.0001435256568 
0.0002636095548 
0.0005658471902 
0.0003216840196 
0.0003649771667 
0.000382736888 
0.0002222166401 
0.0003195429196 
0.0001946206532 
0.0003831953723 
0.0005013199141 
0.0004458421637 
0.0006080490445 
0.0004088581972 
0.0006058159498 
0.0005674371309 
0.0005180472015 
0.0004772605776 
0.0005244589567 
0.0002183647483 
0.0007499711278 
0.0007198581284 
0.0003813410925 
0.0004838140811 
0.0002180288081 
0.0003272647228 
0.000402969391 
0.0002616828273 
0.0002714826533 
0.0002831165025 
0.0003160744512 
0.0001232288242 
0.000226302168 
0.0003119794481 
0.0004432758984 
0.0002516097046 
0.0003452620269 
0.0001488520875 
0.0002060970437 
0.0003465613034 
0.0003887257457 
0.0004750626103 
0.0007944183342 
0.0002647082766 
0.0002884473005 
0.0005435176664 
0.0009958892453 
0.0004602018599 
0.0002783953525 
0.0004766011648 
0.000359600055 
0.0001759752338 
0.000513888796 
0.0005616877635 
0.0005163947438 
0.0006189915106 
0.0005455968149 
0.0003377304179 
0.0005757418565 
0.0004812100018 
0.0004278672904 
0.0003019712759 
0.0002681552726 
0.0002402982367 
0.0001171000782 
0.0002725455347 
0.0003556899213 
0.0002475657324 
0.0002672713062 
0.0001853528308 
0.0002451961741 
0.0002703445755 
0.0005016108392 
0.0004721886286 
0.0005756638851 
0.0003990601256 
0.0002502426238 
0.0005959550477 
0.0008528703303 
0.0003801573822 
0.0003898056723 
0.0005046382244 
0.0003248422589 
0.0003285163298 
0.000203995942 
0.0002610072047 
0.0003121943125 
0.0002469728864 
0.0001019143738 
0.0004243251011 
0.000368151561 
0.0004349830288 
0.000266290095 
0.0003830055538 
0.0002635969907 
0.0001035777144 
0.0002034656888 
0.0006186415906 
0.0005576034876 
0.0005693487083 
0.0005294139756 
0.0007278844776 
0.0004202274914 
0.0005659862076 
0.000567241235 
0.0004970229298 
0.0005138736263 
0.0003566481501 
0.0004918500998 
0.0004686012583 
0.0005724413429 
0.0005111294077 
0.0005717158849 
0.0003884418756 
0.0003423618737 
0.0002535683792 
0.0001859499424 
0.0002493370075 
0.0003501872229 
0.0003192824967 
0.0002216817252 
0.0004083152598 
0.0002758413469 
0.0002106238282 
0.0002564332991 
0.0002640253615 
0.0003555634175 
0.0002068042878 
0.0003007233312 
0.0002409876029 
0.0001658873591 
0.0001828480247 
0.0005075889238 
0.0002861210705 
0.0003483026891 
0.0003427884813 
0.0003304145338 
0.0002183365653 
0.0001504296755 
0.0004000442659 
0.0003122777738 
0.0002833060002 
0.0002859409765 
0.0004014717316 
0.0005796108657 
0.0005225340211 
0.0006097792653 
0.0004050956501 
0.0003441468886 
0.0005272853605 
0.0003252823742 
0.0002010749161 
0.000283952187 
0.0002551422432 
0.000615643978 
0.000641311706 
0.0001647064418 
0.0006187725331 
0.0004208519521 
0.000350446256 
0.0003005267674 
0.0007075264874 
0.0002786890906 
0.0004762152334 
0.0006842292507 
0.0005960774807 
0.0006383787066 
0.0007063247748 
0.0005690860856 
0.0007724247385 
0.000522128241 
0.0002293977334 
0.0003173203994 
0.0002042121959 
0.0002009760049 
0.0002470752329 
0.0002529147612 
0.0002158728898 
0.0002748364019 
0.0003123479191 
0.0002785071374 
0.000384617633 
0.0003666161283 
0.0002579573797 
0.000425687074 
0.0005121950526 
0.0002812613292 
0.0006886872915 
0.0003971098658 
0.0008435347713 
0.000407068257 
0.0003976970299 
0.0005618983427 
0.000507778617 
0.0002486110003 
0.0004725400066 
0.0004863419147 
0.0007219749561 
0.0004827737123 
0.0003370236166 
0.000374014308 
0.0002306243175 
0.0006232279078 
0.0007555406938 
0.000400786685 
0.0005830771463 
0.0001376938788 
0.0005020372554 
0.0003652911481 
0.0005069458344 
0.0005598568033 
0.0004371429862 
0.0005239885484 
0.000618583575 
0.0002800444398 
0.0002901114604 
0.0002263223286 
0.0002269861136 
0.0002669137327 
0.0001816659178 
0.0003383132155 
0.0003438386427 
0.0004673169118 
0.0002817059289 
0.0005352987706 
0.0003886105569 
0.0003151308013 
0.0007409229687 
0.0009245112158 
0.0004166194707 
0.000559958548 
0.0003005315732 
0.0003470925292 
0.0004783890111 
0.0004365683798 
0.000210201867 
0.0005372720726 
0.0005765088182 
0.0002179186825 
0.0003061392634 
0.0002243064029 
0.0002979930778 
0.0004281204653 
0.0002847558347 
0.0002439981402 
0.0002949441309 
0.000166311401 
0.0003767097349 
0.0003662012142 
0.0002940536863 
0.0003027287309 
0.0002100712409 
0.000182355967 
0.0001496125744 
0.0003108699033 
0.0002343833075 
0.0002645852216 
0.0002881157441 
0.0006394071501 
0.0003379966715 
0.0004280224069 
0.0006148789983 
0.0002888039125 
0.0004327279775 
0.0003458544678 
0.0007067903361 
0.0005373684531 
0.0003004947932 
0.0006246913704 
0.0005935053667 
0.0006508978629 
0.0004803254348 
0.0002852223179 
0.0005129293018 
0.0005828121638 
0.000941174234 
0.0003188423352 
0.0005290847232 
0.0001577559645 
0.0003323737157 
0.0002581182368 
0.000203009411 
0.0004730415339 
0.0003349899604 
0.000591431374 
0.0004101649948 
0.0004706689897 
0.0004161168706 
0.0002615442344 
0.0003654995022 
0.0004160322336 
0.0003197539321 
0.0003306515321 
0.0005711444828 
0.0003712363909 
0.0003419435617 
0.0002988401309 
0.0002014978272 
0.0002847939331 
0.0003757644917 
0.0003932046177 
0.0002532250453 
0.0001947698941 
0.000204248295 
0.0003498979495 
0.0003942905435 
0.0003827718482 
0.0002710590512 
0.0004782864956 
0.0006584463191 
0.0004974114971 
0.0003772750209 
0.0001858856559 
0.0002930284129 
0.0003279279307 
0.0001461030685 
0.0002353754199 
0.0001775763986 
0.0002806634948 
0.0004433751091 
0.0002982503234 
0.000489187914 
0.0001018602093 
0.000359815087 
0.0003170317185 
0.0002950248457 
0.0003313131376 
0.0002962967526 
0.0002945774489 
0.0008768637234 
0.0003636436457 
0.0004098701615 
0.0003617245909 
0.0003584111831 
0.0004192436924 
0.000350531103 
0.0005097992008 
0.0005382963681 
0.0002209165425 
0.0002518670371 
0.0003311404306 
0.0002710975921 
0.000221909594 
0.0004027525662 
0.0003800606539 
0.0002936664829 
0.0003193821289 
0.0003989909207 
0.0003160399593 
0.0003426227602 
0.0002365036448 
0.0001815761025 
0.0003638894233 
0.0002247764806 
0.0003134744795 
0.0002068668576 
0.000381490547 
0.0004150283642 
0.0002688683455 
0.0005270850917 
0.0004010846907 
0.0004272756585 
0.0003281494185 
0.0005163369235 
0.0002717621012 
0.0001631821194 
0.0002927860793 
0.0001831331277 
0.0002783139496 
0.0003371320873 
0.0004256527937 
0.0002744251003 
0.0006349151952 
0.0005472947316 
0.0002927944453 
0.0005611268003 
0.000550896023 
0.0002610171527 
0.0003541345668 
0.0002186093364 
0.0001844081895 
0.0003477369468 
0.0003371925102 
0.0002630898991 
0.0002288300151 
0.0002914330786 
0.000446721827 
0.0003350596875 
0.0002876183251 
0.0002840167231 
0.0002685701809 
0.0003654550336 
0.0005001180627 
0.0007985593535 
0.0003414931923 
0.0003661521455 
0.0007201980885 
0.0004230102581 
0.0001911403051 
0.0003866119497 
0.001194844823 
0.0003553605242 
0.0001959771679 
0.000353322286 
0.0002606177586 
0.0003338209 
0.0005749871714 
0.0003582900782 
0.0003203656984 
0.0002108096309 
0.0003182787768 
0.0002614386157 
0.0003618502539 
0.0004184067559 
0.0003943299113 
0.0003305174168 
0.0003696798224 
0.0002414316234 
0.0007082815817 
0.0007035542967 
0.0005799571234 
0.0003257110078 
0.0003394049793 
0.0004480935017 
0.0006242170779 
0.0004273652906 
0.0005049917891 
0.000649984579 
0.0005145858535 
0.0003140639557 
0.0003900690577 
0.00031547299 
0.0003039141728 
0.0003406969922 
0.0003817630068 
0.0002177953456 
0.0003659817546 
0.0003806218954 
0.0001981086474 
0.0002560344058 
0.0002112048761 
0.0005483292165 
0.0003033607656 
0.0006124113081 
0.0002122067458 
0.0004648595322 
0.0002702058668 
0.0004440152696 
0.00036929804 
0.0007958827553 
0.0004553549826 
0.0007014169831 
0.0006686695492 
0.0005218312729 
0.0007979855158 
0.0003413902777 
0.0003248344238 
0.0004706482167 
0.0001691841042 
0.0004319390271 
0.0004892850084 
0.0004031704134 
0.0003390553525 
0.0004917880187 
0.0004737557761 
0.0005845026041 
0.000677148397 
0.0007268247858 
0.0005650658941 
0.0001742364981 
0.0002409600941 
0.0002785402024 
0.000345299794 
0.0003448903039 
0.0002346242179 
0.000281908325 
0.0003505195142 
0.0006134557717 
0.0002457006821 
0.0003020058219 
0.000189499798 
0.0002564765323 
0.000449313507 
0.0004763035205 
0.0005333923072 
0.0006662309355 
0.0004715420035 
0.0003474413557 
0.0003261584839 
0.0005273201731 
0.0005212538078 
0.0003906555203 
0.0004280799255 
0.0007560463955 
0.0004837176805 
0.0003907632847 
0.0002733615469 
0.0003351557729 
0.0005649650288 
0.0005120301118 
0.000287454813 
0.0006737538519 
0.0004756328108 
0.0004563693362 
0.0004056474816 
0.000385137869 
0.0004695956704 
0.0004239534273 
0.0007160820463 
0.0002076947189 
0.0002934869458 
0.0004372869998 
0.0001698733835 
0.0004004467059 
0.0004287521901 
0.0003710663125 
0.0004073918411 
0.0002264666577 
0.0001991454607 
0.0004082640524 
0.0006306523575 
0.0004568932824 
0.0002879774267 
0.0004603581103 
0.0002590205634 
0.0002925360064 
0.0003297054019 
0.0003638678841 
0.000386582622 
0.0006478793926 
0.0004003004038 
0.000386437859 
0.0003167182234 
0.000321769526 
0.0001676025689 
0.0002779552154 
0.0003546339503 
0.0003435883756 
0.0002537655827 
0.000335909449 
0.0003247050104 
0.0003141931981 
0.0002071533433 
0.0004898168085 
0.0005354404122 
0.0002535981796 
0.0002371025637 
0.0002279393591 
0.0004359477343 
0.0004968464143 
0.0007390286339 
0.0003323318736 
0.0002148179812 
0.0003775093184 
0.0003959848862 
0.0005924943961 
0.0001543266749 
0.000550038761 
0.000683401247 
0.0005633375138 
0.0006502404498 
0.0005234719537 
0.0003520386835 
0.0004675727009 
0.0005000329839 
0.0005286312256 
0.0005856346105 
0.0007754469269 
0.0003366337104 
0.0003094986001 
0.0005682246105 
0.0003002804032 
0.00029588293 
0.0005910123231 
0.0003422288891 
0.0003529690608 
0.0006663131008 
0.0002464646912 
0.0001401861462 
0.0003933296393 
0.0004903034029 
0.0004121824411 
0.0003573790393 
0.0008800839197 
0.0003925685932 
0.0003827995983 
0.0003331400938 
0.0003053744878 
0.0002664083438 
0.0002839940519 
0.0004374958374 
0.000379735952 
0.0007900564533 
0.0005867382205 
0.0004812270553 
0.0004575400631 
0.0002317077735 
0.0003616386222 
0.0003652705084 
0.0002993954101 
0.000185442495 
0.0002241458262 
0.0003425766803 
0.0003105085212 
0.0002280318924 
0.0002132596724 
0.0001550983134 
0.0004186142383 
0.0003282584525 
0.0006030034132 
0.0003378411051 
0.0004093787812 
0.0002723571682 
0.0003050937268 
0.0005173080136 
0.0002484778059 
0.0004480988632 
0.0004469599901 
0.0005911535198 
0.0003324623697 
0.0004346801733 
0.0004582452651 
0.0004155774539 
0.0004010834354 
0.0003026092716 
0.0004200330288 
0.0006343188352 
0.0007264425314 
0.0008073908534 
0.0006096389959 
0.0006627176747 
0.0002174168884 
0.0002974155581 
0.0004722147826 
0.0003846297456 
0.0005389179422 
0.0006311529634 
0.0008101260943 
0.0006982910102 
0.0004117316832 
0.0005507716081 
0.0001657595468 
0.0002793963629 
0.0006247045495 
0.0002065933167 
0.0005152930776 
0.0007009769477 
0.0003498632585 
0.0005414639763 
0.0003783981039 
0.0003655893914 
0.0002831182649 
0.0001827006362 
0.0002833836028 
0.0004230843622 
0.0003346754513 
0.000306749297 
0.0002105165095 
0.0002542582302 
0.0003017627098 
0.0003960894313 
0.0003187169794 
0.0002811272662 
0.000112085108 
0.0005189704286 
0.0002143617658 
0.0003025609502 
0.0003016661709 
0.0004618724273 
0.0004483971558 
0.000504263394 
0.0004346925265 
0.0004341005949 
0.0004340936186 
0.0005793321663 
0.0001591498049 
0.000378934224 
0.0005506785581 
0.0008820374847 
0.0002851186283 
0.0005619807471 
0.0004661151996 
0.0005082419712 
0.0007784616274 
0.0003726084395 
0.0004051497374 
0.000400704095 
0.000505628113 
0.0004547916282 
0.0003207317689 
0.0008891772386 
0.0004956634237 
0.0006424166377 
0.0004617658437 
0.0004120382136 
0.0001418461119 
0.0004064821319 
0.0005388311422 
0.000330333671 
0.0003162855091 
0.0003975007031 
0.0002571922581 
0.0003050129233 
0.0002232086769 
0.0003972150263 
0.000246713963 
0.000267628427 
0.0003595466309 
0.0002963114202 
0.0004883811967 
0.0002344133636 
0.0001519565133 
0.0004281490946 
0.0003594472464 
0.0003728342741 
0.0006380299426 
0.0005778934021 
0.0002968277687 
0.0004672532739 
0.0008161591784 
0.0003779172092 
0.000824014236 
0.0002773553917 
0.0004766821816 
0.0001847126903 
0.0005815291357 
0.0002467710538 
0.0003614534451 
0.0007133736236 
0.000296576089 
0.0003514617797 
0.000356391033 
0.0002826432089 
0.0003331071369 
0.0002533539783 
0.0003148332111 
0.0003452499368 
0.0004428682783 
0.0005407297379 
0.0003982960321 
0.000315059947 
0.0004843002685 
0.0005357552834 
0.0002436755119 
0.0002802352983 
0.0001651483885 
0.000398449753 
0.0004475253927 
0.0002986294474 
0.0003442175314 
0.0004888874661 
0.0003864433085 
0.0003048369984 
0.0003513898882 
0.0005278803298 
0.0003755337996 
0.0004987525118 
0.0003024908419 
0.0003465033556 
0.0004604925993 
0.0003995764756 
0.0002328977841 
0.0005488780302 
0.0005361668581 
0.0005271036479 
0.0004121006088 
0.0001764938509 
0.0003041131593 
0.0004372166529 
0.0002495525789 
0.0001191315535 
0.0001867895818 
0.0003085822535 
0.0002919180131 
0.0001654032799 
0.0001850346417 
0.0002879018465 
0.0004529846393 
0.0004243083423 
0.000168336782 
0.0004944414093 
0.0004432182446 
0.0005559984422 
0.0004416796225 
0.0004193043402 
0.0004667342135 
0.0003151818408 
0.0003846801733 
0.0001906866154 
0.0004782708096 
0.000435018973 
0.0002561083594 
0.0003948682647 