# vtk DataFile Version 3.0
MOAB 4.6.0pre
ASCII
DATASET UNSTRUCTURED_GRID
POINTS 2814 double
0.445610315 0.246495873 -60.9600182
0.445610315 1.44649589 -60.9600182
0.445610315 0.246495873 60.9599991
0.445610315 1.44649589 60.9599991
0.0213462412 0.422231823 -60.9600182
-0.154389694 0.846495867 -60.9600182
0.0213462412 1.27075994 -60.9600182
0.869874358 1.27075994 -60.9600182
1.04561031 0.846495867 -60.9600182
0.869874358 0.422231823 -60.9600182
0.445610315 0.246495873 -60.4742813
0.445610315 0.246495873 -59.9885445
0.445610315 0.246495873 -59.5028076
0.445610315 0.246495873 -59.0170708
0.445610315 0.246495873 -58.5313339
0.445610315 0.246495873 -58.0455971
0.445610315 0.246495873 -57.5598602
0.445610315 0.246495873 -57.0741234
0.445610315 0.246495873 -56.5883865
0.445610315 0.246495873 -56.1026497
0.445610315 0.246495873 -55.6169128
0.445610315 0.246495873 -55.131176
0.445610315 0.246495873 -54.6454391
0.445610315 0.246495873 -54.1596985
0.445610315 0.246495873 -53.6739616
0.445610315 0.246495873 -53.1882248
0.445610315 0.246495873 -52.7024879
0.445610315 0.246495873 -52.2167511
0.445610315 0.246495873 -51.7310143
0.445610315 0.246495873 -51.2452774
0.445610315 0.246495873 -50.7595406
0.445610315 0.246495873 -50.2738037
0.445610315 0.246495873 -49.7880669
0.445610315 0.246495873 -49.30233
0.445610315 0.246495873 -48.8165932
0.445610315 0.246495873 -48.3308563
0.445610315 0.246495873 -47.8451157
0.445610315 0.246495873 -47.3593788
0.445610315 0.246495873 -46.873642
0.445610315 0.246495873 -46.3879051
0.445610315 0.246495873 -45.9021683
0.445610315 0.246495873 -45.4164314
0.445610315 0.246495873 -44.9306946
0.445610315 0.246495873 -44.4449577
0.445610315 0.246495873 -43.9592209
0.445610315 0.246495873 -43.473484
0.445610315 0.246495873 -42.9877472
0.445610315 0.246495873 -42.5020103
0.445610315 0.246495873 -42.0162735
0.445610315 0.246495873 -41.5305328
0.445610315 0.246495873 -41.044796
0.445610315 0.246495873 -40.5590591
0.445610315 0.246495873 -40.0733223
0.445610315 0.246495873 -39.5875854
0.445610315 0.246495873 -39.1018486
0.445610315 0.246495873 -38.6161118
0.445610315 0.246495873 -38.1303749
0.445610315 0.246495873 -37.6446381
0.445610315 0.246495873 -37.1589012
0.445610315 0.246495873 -36.6731644
0.445610315 0.246495873 -36.1874275
0.445610315 0.246495873 -35.7016907
0.445610315 0.246495873 -35.2159538
0.445610315 0.246495873 -34.7302132
0.445610315 0.246495873 -34.2444763
0.445610315 0.246495873 -33.7587395
0.445610315 0.246495873 -33.2730026
0.445610315 0.246495873 -32.7872658
0.445610315 0.246495873 -32.3015289
0.445610315 0.246495873 -31.8157921
0.445610315 0.246495873 -31.3300552
0.445610315 0.246495873 -30.8443184
0.445610315 0.246495873 -30.3585815
0.445610315 0.246495873 -29.8728428
0.445610315 0.246495873 -29.3871059
0.445610315 0.246495873 -28.9013691
0.445610315 0.246495873 -28.4156322
0.445610315 0.246495873 -27.9298954
0.445610315 0.246495873 -27.4441586
0.445610315 0.246495873 -26.9584198
0.445610315 0.246495873 -26.472683
0.445610315 0.246495873 -25.9869461
0.445610315 0.246495873 -25.5012093
0.445610315 0.246495873 -25.0154724
0.445610315 0.246495873 -24.5297356
0.445610315 0.246495873 -24.0439987
0.445610315 0.246495873 -23.55826
0.445610315 0.246495873 -23.0725231
0.445610315 0.246495873 -22.5867863
0.445610315 0.246495873 -22.1010494
0.445610315 0.246495873 -21.6153126
0.445610315 0.246495873 -21.1295757
0.445610315 0.246495873 -20.6438389
0.445610315 0.246495873 -20.1581001
0.445610315 0.246495873 -19.6723633
0.445610315 0.246495873 -19.1866264
0.445610315 0.246495873 -18.7008896
0.445610315 0.246495873 -18.2151527
0.445610315 0.246495873 -17.7294159
0.445610315 0.246495873 -17.2436771
0.445610315 0.246495873 -16.7579403
0.445610315 0.246495873 -16.2722034
0.445610315 0.246495873 -15.7864666
0.445610315 0.246495873 -15.3007298
0.445610315 0.246495873 -14.814992
0.445610315 0.246495873 -14.3292551
0.445610315 0.246495873 -13.8435183
0.445610315 0.246495873 -13.3577814
0.445610315 0.246495873 -12.8720436
0.445610315 0.246495873 -12.3863068
0.445610315 0.246495873 -11.9005699
0.445610315 0.246495873 -11.4148321
0.445610315 0.246495873 -10.9290953
0.445610315 0.246495873 -10.4433584
0.445610315 0.246495873 -9.95762062
0.445610315 0.246495873 -9.47188377
0.445610315 0.246495873 -8.98614693
0.445610315 0.246495873 -8.50041008
0.445610315 0.246495873 -8.01467228
0.445610315 0.246495873 -7.52893543
0.445610315 0.246495873 -7.04319811
0.445610315 0.246495873 -6.55746126
0.445610315 0.246495873 -6.07172394
0.445610315 0.246495873 -5.58598709
0.445610315 0.246495873 -5.10024977
0.445610315 0.246495873 -4.61451244
0.445610315 0.246495873 -4.1287756
0.445610315 0.246495873 -3.64303827
0.445610315 0.246495873 -3.15730119
0.445610315 0.246495873 -2.6715641
0.445610315 0.246495873 -2.18582702
0.445610315 0.246495873 -1.70008981
0.445610315 0.246495873 -1.21435273
0.445610315 0.246495873 -0.728615582
0.445610315 0.246495873 -0.242878437
0.445610315 0.246495873 0.242858693
0.445610315 0.246495873 0.728595853
0.445610315 0.246495873 1.21433294
0.445610315 0.246495873 1.70007014
0.445610315 0.246495873 2.18580723
0.445610315 0.246495873 2.67154431
0.445610315 0.246495873 3.1572814
0.445610315 0.246495873 3.64301872
0.445610315 0.246495873 4.12875557
0.445610315 0.246495873 4.61449289
0.445610315 0.246495873 5.10023022
0.445610315 0.246495873 5.58596706
0.445610315 0.246495873 6.07170439
0.445610315 0.246495873 6.55744123
0.445610315 0.246495873 7.04317856
0.445610315 0.246495873 7.52891588
0.445610315 0.246495873 8.01465321
0.445610315 0.246495873 8.50039005
0.445610315 0.246495873 8.9861269
0.445610315 0.246495873 9.47186375
0.445610315 0.246495873 9.95760155
0.445610315 0.246495873 10.4433384
0.445610315 0.246495873 10.9290752
0.445610315 0.246495873 11.414813
0.445610315 0.246495873 11.9005499
0.445610315 0.246495873 12.3862867
0.445610315 0.246495873 12.8720245
0.445610315 0.246495873 13.3577614
0.445610315 0.246495873 13.8434982
0.445610315 0.246495873 14.3292351
0.445610315 0.246495873 14.8149729
0.445610315 0.246495873 15.3007097
0.445610315 0.246495873 15.7864466
0.445610315 0.246495873 16.2721844
0.445610315 0.246495873 16.7579212
0.445610315 0.246495873 17.2436581
0.445610315 0.246495873 17.7293949
0.445610315 0.246495873 18.2151318
0.445610315 0.246495873 18.7008705
0.445610315 0.246495873 19.1866074
0.445610315 0.246495873 19.6723442
0.445610315 0.246495873 20.1580811
0.445610315 0.246495873 20.6438179
0.445610315 0.246495873 21.1295547
0.445610315 0.246495873 21.6152916
0.445610315 0.246495873 22.1010303
0.445610315 0.246495873 22.5867672
0.445610315 0.246495873 23.072504
0.445610315 0.246495873 23.5582409
0.445610315 0.246495873 24.0439777
0.445610315 0.246495873 24.5297146
0.445610315 0.246495873 25.0154533
0.445610315 0.246495873 25.5011902
0.445610315 0.246495873 25.986927
0.445610315 0.246495873 26.4726639
0.445610315 0.246495873 26.9584007
0.445610315 0.246495873 27.4441376
0.445610315 0.246495873 27.9298744
0.445610315 0.246495873 28.4156132
0.445610315 0.246495873 28.90135
0.445610315 0.246495873 29.3870869
0.445610315 0.246495873 29.8728237
0.445610315 0.246495873 30.3585606
0.445610315 0.246495873 30.8442974
0.445610315 0.246495873 31.3300343
0.445610315 0.246495873 31.815773
0.445610315 0.246495873 32.3015099
0.445610315 0.246495873 32.7872467
0.445610315 0.246495873 33.2729836
0.445610315 0.246495873 33.7587204
0.445610315 0.246495873 34.2444572
0.445610315 0.246495873 34.7301941
0.445610315 0.246495873 35.2159309
0.445610315 0.246495873 35.7016678
0.445610315 0.246495873 36.1874046
0.445610315 0.246495873 36.6731453
0.445610315 0.246495873 37.1588821
0.445610315 0.246495873 37.644619
0.445610315 0.246495873 38.1303558
0.445610315 0.246495873 38.6160927
0.445610315 0.246495873 39.1018295
0.445610315 0.246495873 39.5875664
0.445610315 0.246495873 40.0733032
0.445610315 0.246495873 40.5590401
0.445610315 0.246495873 41.0447769
0.445610315 0.246495873 41.5305138
0.445610315 0.246495873 42.0162506
0.445610315 0.246495873 42.5019875
0.445610315 0.246495873 42.9877281
0.445610315 0.246495873 43.473465
0.445610315 0.246495873 43.9592018
0.445610315 0.246495873 44.4449387
0.445610315 0.246495873 44.9306755
0.445610315 0.246495873 45.4164124
0.445610315 0.246495873 45.9021492
0.445610315 0.246495873 46.387886
0.445610315 0.246495873 46.8736229
0.445610315 0.246495873 47.3593597
0.445610315 0.246495873 47.8450966
0.445610315 0.246495873 48.3308334
0.445610315 0.246495873 48.8165703
0.445610315 0.246495873 49.3023109
0.445610315 0.246495873 49.7880478
0.445610315 0.246495873 50.2737846
0.445610315 0.246495873 50.7595215
0.445610315 0.246495873 51.2452583
0.445610315 0.246495873 51.7309952
0.445610315 0.246495873 52.216732
0.445610315 0.246495873 52.7024689
0.445610315 0.246495873 53.1882057
0.445610315 0.246495873 53.6739426
0.445610315 0.246495873 54.1596794
0.445610315 0.246495873 54.6454163
0.445610315 0.246495873 55.1311531
0.445610315 0.246495873 55.61689
0.445610315 0.246495873 56.1026306
0.445610315 0.246495873 56.5883675
0.445610315 0.246495873 57.0741043
0.445610315 0.246495873 57.5598412
0.445610315 0.246495873 58.045578
0.445610315 0.246495873 58.5313148
0.445610315 0.246495873 59.0170517
0.445610315 0.246495873 59.5027885
0.445610315 0.246495873 59.9885254
0.445610315 0.246495873 60.4742622
0.0213462412 0.422231823 60.9599991
-0.154389694 0.846495867 60.9599991
0.0213462412 1.27075994 60.9599991
0.445610315 1.44649589 60.4742622
0.445610315 1.44649589 59.9885254
0.445610315 1.44649589 59.5027885
0.445610315 1.44649589 59.0170517
0.445610315 1.44649589 58.5313148
0.445610315 1.44649589 58.045578
0.445610315 1.44649589 57.5598412
0.445610315 1.44649589 57.0741043
0.445610315 1.44649589 56.5883675
0.445610315 1.44649589 56.1026306
0.445610315 1.44649589 55.61689
0.445610315 1.44649589 55.1311531
0.445610315 1.44649589 54.6454163
0.445610315 1.44649589 54.1596794
0.445610315 1.44649589 53.6739426
0.445610315 1.44649589 53.1882057
0.445610315 1.44649589 52.7024689
[...]
CELL_DATA 9483
SCALARS TALLY_TAG double 1
LOOKUP_TABLE default
0.0003908519916 
0.0004286871562 
0.0005656372654 
0.0007054983607 
0.0005573682648 
0.0007742555141 
0.0002363984113 
0.0003643337215 
0.0003096409928 
0.0002456022231 
0.0002412459042 
0.0003911749246 
0.0003493494574 
0.0005132207337 
0.0004300763231 
0.0002594404173 
0.0004236794019 
0.0004959390095 
0.0003876797368 
0.0002321111624 
0.0002796128652 
0.0001371987258 
0.0002674553014 
0.0004287655912 
0.0005181048215 
0.0003607612632 
0.0003791311636 
0.0004938240506 
0.000621568468 
0.0004260722298 
0.0005812528822 
0.0005448703045 
0.0005052351226 
0.0004083240301 
9.198905197e-05 
0.0003557179357 
0.0005673415847 
0.0007943027194 
0.0006189721391 
0.0003418359513 
0.0005321734077 
0.0007342122606 
0.000501329494 
0.0005610484698 
0.0006876331523 
0.000392432045 
0.0005318617791 
0.0005181453711 
0.0004142971134 
0.0004257931104 
0.0006338582032 
0.0003514514525 
0.0002648203171 
0.0002033040823 
0.0003567218099 
0.0002672922207 
0.0002515229709 
0.0002089565042 
0.000461710024 
0.0004552052289 
0.0005248158932 
0.0002457480555 
0.000282318638 
0.0003819888844 
0.0005931686531 
0.0001955861176 
0.000495709295 
0.0004664448396 
0.0004606604506 
0.0003069814265 
0.000606447892 
0.0005613365021 
0.0002448290337 
0.000185765116 
0.0001607445427 
0.0001492790031 
0.0001582843668 
0.0003518061534 
0.0003953378215 
0.0002245829401 
0.0003338634443 
0.0003475221072 
0.0001644485215 
0.0002021488577 
0.000271186895 
0.0001591490025 
0.000454675341 
0.000486069411 
0.0006780121152 
0.0003228969878 
0.0004033336828 
0.0004451232877 
0.0004210013767 
0.000491562774 
0.0006193819808 
0.0003371819457 
0.0002826452224 
0.0003642227037 
0.0003874727804 
0.000407150235 
0.0003872408971 
0.0004095695171 
0.0003413307934 
0.0003789608684 
0.0002166127597 
0.0001569014551 
0.0003346898499 
0.0002923798506 
0.000394613889 
0.0004099950858 
9.312085649e-05 
0.0002440191672 
0.0003330551974 
0.0002866303311 
0.0002397974028 
0.000321757946 
0.0005139690805 
0.0002652112338 
0.0003472391838 
0.0002899176541 
0.0002443875552 
0.0003792474286 
0.0001592010167 
0.0005208942633 
0.0004388063602 
0.000581758257 
0.0004777569115 
0.000149868134 
0.0004191326626 
0.0001776889733 
0.000287067817 
0.0003125601362 
0.0004098573385 
0.0004159517389 
0.0004518096661 
0.0004240724705 
0.000515425537 
0.0005351844808 
0.0006739029213 
0.0006647231261 
0.0007642543258 
0.00026451674 
0.0004601172366 
0.0005813740913 
0.0002388242058 
0.0008547431706 
0.000284940264 
0.0004129771602 
0.00068945609 
0.0005680672137 
0.000334556961 
0.0004050495135 
0.0006582863969 
0.001068713544 
0.0005439694878 
0.0002911198728 
0.0004182806191 
0.0002754613864 
0.0006022039693 
0.0004085290064 
0.0002321255111 
0.0002765841989 
0.0001905304128 
0.0002929626922 
0.0004091869027 
0.0003023006055 
0.0001730887142 
0.0001141517604 
0.0002684796973 
0.0003818543651 
0.0003611472524 
0.0003408968105 
0.0003604863644 
0.0006467233285 
0.0008001603216 
0.000581642701 
0.0004383477304 
0.0005937873953 
0.0003965092078 
0.000475826583 
0.0004347098068 
0.0003862864967 
0.0004304805926 
0.0004463931033 
0.0005391442246 
0.0002495213971 
0.0003986354321 
0.0002843589461 
0.0004864187427 
0.0001981206296 
0.0002024892184 
0.0003356869128 
0.0003139454389 
0.0002505196042 
0.0002205307236 
0.0001983914293 
0.0004560901273 
0.0003842882197 
0.0004328834817 
0.0002361377502 
0.0005753116329 
0.0002272545178 
0.0005268472846 
0.0004161847127 
0.0002486752252 
0.0005770910602 
0.0005985527417 
0.0003079409105 
0.0004664976034 
0.0003882408254 
0.0005867615358 
0.0003302867332 
0.0001100468759 
0.0003205949755 
0.0002845276528 
0.0003227925193 
0.0002028524749 
0.000320655854 
0.0004342175975 
0.0008174201744 
0.0001869671652 
0.0002160631359 
0.000244479661 
0.0002799757644 
0.0004893527996 
0.000347256771 
0.0005272421473 
0.0004087310821 
0.0005007911371 
0.0003981050431 
0.0003412713186 
0.0002501900181 
0.0005633246777 
0.0002870562366 
0.0004685849754 
0.0002700585761 
0.0002404417807 
0.0005295064027 
0.0006586325095 
0.0002019096567 
0.0002998033027 
0.000474297405 
0.0003747202346 
0.0005564807591 
0.0003617228807 
0.00015836468 
0.0001822663306 
0.0002119542156 
0.0003760389272 
0.0004287443944 
0.000246832163 
0.0002562426514 
0.0002844420855 
0.0003666644929 
0.0005563262875 
0.0005991483929 
0.0008623969391 
0.0004269503988 
0.0005308289422 
0.0003637909945 
0.0001597555911 
0.000485055851 
0.0005185571508 
0.0003604521255 
0.000325150999 
0.000384086497 
0.0005545334419 
0.0007887873752 
0.0004632653814 
0.0005823029818 
0.0006755123685 
0.0002498606955 
0.0003019396065 
0.0005756441917 
0.0002965974086 
0.0002350513734 
0.0003607502651 
0.0004025177669 
0.000376689653 
0.0001764269867 
0.0003922580425 
0.0003534582443 
0.0004675967365 
0.0004980559928 
0.000604891091 
0.0003976188404 
0.0002143684879 
0.0003286416576 
0.0004687924045 
0.000562319901 
0.0004343001905 
0.0005980528547 
0.000817110558 
0.0005522562298 
0.0002578397149 
0.0002145202582 
0.0007601572293 
0.0005482437727 
0.0003650720028 
0.0005341231345 
0.0004966297339 
0.000248898395 
0.0002415955921 
0.0004377838016 
0.0002413100229 
0.0004399975247 
0.0002542862331 
0.000139544501 
0.0003602283029 
0.0005266423735 
0.0005321501747 
0.0002073461545 
0.0002346144774 
0.000325314454 
0.0001378799074 
0.0006510006951 
0.0003242446102 
0.0004641053852 
0.0005180831882 
0.0004137561234 
0.0004205214817 
0.0002134196509 
0.0002077770088 
0.0002671570946 
0.0005331711 
0.0004269203556 
0.0005368931007 
0.0003314162952 
0.0006706048573 
0.0004556298806 
0.0003563756607 
0.0003507883846 
0.0003650266214 
0.0001502940548 
0.0003614973138 
0.0004109517085 
0.0002896693485 
0.0004115359026 
0.0003452991244 
0.0002097004387 
0.0003512634247 
0.0001802263048 
0.0002172606673 
0.0002836096205 
0.0002572598065 
0.0002170062932 
0.0004136338721 
0.0002925266262 
0.0002793892305 
0.0003020544591 
0.0001555002875 
0.0002930861942 
0.0003365842898 
0.0001948104002 
0.0001725331836 
0.0003295001138 
0.0003647195982 
0.0002545760383 
0.0002687223549 
0.0003463265363 
0.0003734527853 
0.0003669927002 
0.0004816417386 
0.0006387472952 
0.0007153028145 
0.0009075249488 
0.0004121502795 
0.0002177677727 
0.0002246684856 
0.0005504788668 
0.0002196344925 
0.0002600711803 
0.0001748362077 
0.0002707975017 
0.0002236868202 
0.0002124975584 
0.0002372806764 
0.0003149552582 
0.0001457827931 
0.0002772925884 
0.0003487637118 
0.0002458688901 
0.0005268989322 
0.0004134586076 
0.0001332136426 
0.0003890445084 
0.0004914965182 
0.0004788452502 
0.0004483867484 
0.0001986026243 
0.0001284592381 
0.0005961478511 
0.0007364482659 
0.000522564267 
0.000688736872 
0.0003244686447 
0.0004870385906 
0.0001984310901 
0.0003134464804 
0.0002501846491 
0.0003425964747 
0.0002848368395 
0.0003003087958 
0.0002961113277 
0.0002923918922 
0.0002833756638 
0.0001237304948 
0.0001186995183 
0.0004700198847 
0.0006084567536 
0.0003097673721 
0.0001486695058 
0.0002325128852 
0.0003182477021 
0.0003411941909 
0.0003859019393 
0.0003028331729 
0.0008663517094 
0.0003587992682 
0.0002468926839 
0.0008176363625 
0.0007601102372 
0.0002208530072 
0.0002704467685 
0.0003810774287 
0.0002246580323 
0.0003195695977 
0.0002894785561 
0.0001812597138 
0.0002728571434 
0.0003481326182 
0.0003746368891 
0.0001936662151 
0.0004544850688 
0.0004651519169 
0.000406997954 
0.0004754963808 
0.0004552278924 
0.0005840410015 
0.0003167519758 
0.0001299736723 
0.0003025602722 
0.0002235823297 
0.0002835663194 
0.000442352079 
0.0003008192493 
0.0001700538068 
0.0005354754797 
0.000673050755 
0.000682326732 
0.0005320369056 
0.000454407433 
0.0006610597816 
0.0002867809723 
0.0003105589757 
0.0001496325019 
0.0001219991792 
0.0003644457518 
0.0004776058549 
0.0002256837307 
0.0001972065799 
0.0006721081363 
0.0007831615677 
0.0005479730995 
0.0004062084745 
0.0006887303793 
0.0007367660276 
0.0004998124268 
0.0007290159364 
0.0004662555874 
0.0003383596105 
0.000476561202 
0.0003068151811 
0.000198933145 
0.0003089891386 
0.0007032128566 
0.0002827780721 
0.0002312600874 
0.0007575641484 
0.0005623710415 
0.0006298754981 
0.0003078343126 
0.0002996833471 
0.000891436954 
0.0004869922044 
0.0002694329795 
0.0007019475095 
0.000656999779 
0.0003009481903 
0.0003160116047 
0.0004752707787 
0.0004343336122 
0.0002338242127 
0.000682274686 
0.0004627605991 
0.0005229860137 
0.0006668544352 
0.0008117530761 
0.000793072258 
0.000545114703 
0.0004941886403 
0.0003501596888 
0.0002101486165 
0.0001769996112 
0.0004111939302 
0.0002916718784 
0.0004792947526 
0.0003402247339 
0.00040641542 
0.0002669051098 
0.0004359914688 
0.0002150814623 
0.0005256079135 
0.0004184134239 
0.0001999943491 
0.0003261328461 
0.0002623495988 
0.0002899067424 
0.0002926262508 
0.0002027771934 
0.0004046448002 
0.0001773262574 
0.0004166389139 
0.000416797853 
0.0003646211044 
0.0003797344903 
0.0004009761996 
0.0001917381669 
0.0004423752409 
0.0002353260537 
0.0003132541392 
0.0003628277076 
0.0007652063991 
0.0003429554223 
0.0005621243452 
0.0004737542463 
0.0003472537531 
0.0001827427571 
0.0003447276223 
0.0003980857275 
0.0008062690947 
0.000228160083 
0.00069482972 
0.0002367766706 
0.0004718263378 
0.0002536758826 
0.0001717360718 
0.0002129399114 
0.0005878168558 
0.0001835570598 
0.0002196506915 
0.0004835819331 
0.0001580386695 
0.00059988387 
0.0004191797501 
0.0004861068564 
0.0004421052417 
0.000135665017 
0.0001075859473 
0.0003477188148 
0.000614322166 
0.0001683917735 
0.0004507738868 
0.0002395315413 
0.0002530092829 
0.000233741156 
0.0007147953301 
0.000937289764 
0.0003873134328 
0.0006804006861 
0.0003705067601 
0.0005771877184 
0.0004988798847 
0.0004875776391 
0.0003663740532 
0.0006041983841 
0.0009171504037 
0.0003549164544 
0.0002722008356 
0.000314802997 
0.0001552694081 
0.0002321428688 
0.000380198692 
0.0004171508999 
0.0005860369481 
0.0007374830804 
0.000301983139 
0.0003043707355 
0.0002050037749 
0.0003140869254 
0.0006102415227 
0.0004969112162 
0.0005238042886 
0.0003057348682 
0.0002762796789 
0.0003249904378 
0.0003943654254 
0.0002769912767 
0.0001914067688 
0.0002883178887 
0.0002951503178 
0.0004212963853 
0.0003552126522 
0.0002503619778 
0.0002497941983 
0.0005696994939 
0.0002871289985 
0.0002379536975 
0.0001459554633 
0.0004472118729 
0.0003796043747 
0.0005793367273 
0.000512379542 
0.0004503955507 
0.000305443245 
0.0003734299596 
0.0003281887883 
0.0001691275985 
0.0004458574135 
0.0004787244517 
0.0004672882813 
0.0003607806855 
0.0002169135679 
0.0002826859701 
0.0001267972824 
0.0003304590447 
0.0003436252099 
0.0001963352719 
0.0009316631785 
0.0002366285579 
0.0002471436653 
0.0003855480092 
0.0002507419811 
0.0003325728108 
0.0003487023755 
0.0003022027557 
0.0002160573073 
0.0002934583915 
0.0004073595226 
0.000474785726 
0.0003452425868 
0.0002684857125 
0.0005156365593 
0.0004226642704 
0.0005276860434 
0.0003394966219 
0.0002200622685 
0.0002456628366 
0.0004252889991 
0.0003120943215 
0.0005181282449 
0.0002609487674 
0.0003074909737 
0.0003653323631 
0.0003475237561 
0.0003949475347 
0.0003401546747 
9.66805746e-05 
0.0003418881719 
0.0002840811511 
9.40488075e-05 
7.827226606e-05 
0.0003692110607 
0.0002299850086 
0.0003333307625 
0.0004606524942 
0.0002562146621 
0.0006927376228 
0.0002475264807 
0.0002510287696 
0.0004158045155 
0.0003161189289 
0.0004021529457 
0.0004678055473 
0.0006162451702 
0.0005524057054 
0.000377307397 
0.0006796984412 
0.0006886556989 
0.0002741910018 
0.0002831877906 
0.0002437475437 
0.0003307798973 
0.0004598246529 
0.001103125699 
0.0008481873185 
0.0006728971402 
0.0006275971486 
0.0005066305662 
0.0004535367173 
0.0003557986555 
0.0006598171971 
0.0006625550139 
0.0005152762643 
0.0002537182958 
0.0002790310144 
0.000482023284 
0.0004144840373 
0.0004803607201 
0.0003733000178 
0.0003555441784 
0.0004344193492 
0.0003335016365 
0.000654477048 
0.0005968761386 
0.0006150394151 
0.0002078454709 
0.0003012458291 
0.0001379006022 
0.0009261171339 
0.0002448273753 
0.0002323138335 
0.0003376216137 
0.0003136417457 
0.0002646078874 
0.0003416819272 
0.000574604203 
4.578029129e-05 
0.0005037428392 
0.0005308742072 
0.0006306392447 
0.000430233564 
0.0004669291253 
0.0003525628211 
0.0001300882913 
0.0001775748155 
0.0003527617336 
0.0005527768039 
0.0004097772047 
0.0008214673353 
0.0005031911202 
0.000471783185 
0.0005301340956 
0.0003432534528 
0.000361385108 
0.0008577674894 
0.0001557721026 
0.0005427551829 
0.0003767183715 
0.0005209613446 
0.0009660558125 
0.0002864634934 
0.0006985291472 
0.0003275306503 
0.0003270851918 
0.00027359458 
0.0002936260707 
0.0001869828954 
0.000365976806 
0.0004298382045 
0.0007318649919 
0.0003087884442 
0.0003367394624 
0.000333380613 
0.0004747818502 
0.0004343031419 
0.0002216752399 
0.0004282153998 
0.000365339936 
0.0005920689615 
0.0007891964839 
0.0003576479307 
0.0002699967263 
0.000198128163 
0.0002574466103 
0.0002882112053 
0.0009149646083 
0.000391649345 
0.0003912186115 
0.0001835464341 
0.0007409302407 
0.000388518453 
0.0003035162395 
0.0006406019568 
0.0005163578808 
0.0003038551418 
0.0006413739002 
0.000493096028 
0.0002126743854 
0.0004991435855 
0.0001863932901 
0.0002273078933 
0.0002386011767 
0.0001862943738 
0.0001077019152 
0.0007383884215 
0.0002693560235 
0.0002137645452 
0.0002570694496 
0.0001615457844 
0.0002935157845 
0.000370773651 
7.334700643e-05 
0.00034835764 
0.0003171876789 
0.0002244177605 
0.0003906795347 
7.791137353e-05 
0.0002724257245 
0.0004600408333 
0.0001713886679 
0.0002810913814 
0.000186217441 
0.0002238435732 
0.0003030510766 
0.0004842657901 
0.0001306768289 
0.0001995769389 
0.0004134785655 
0.0002147130465 
0.0007212384802 
0.0005364266761 
0.0007862593318 
0.0002931463344 
0.0003324913862 
0.0006882575555 
0.0006179447718 
0.0003023159849 
0.0002666834677 
0.0003137661279 
0.0004838697238 
0.0005040782401 
0.00043820385 
0.0002562902844 
0.0001932375033 
0.0002281973119 
0.0002266813021 
0.0001755939046 
0.0001929426705 
0.0002934170383 
0.0002543108437 
0.0002918919512 
0.0005226742282 
0.0003430797913 
0.0005782346402 
0.0005188604211 
0.000382777176 
0.0004669504619 
0.0004014345982 
0.0003427476157 
0.0003297334222 
0.0004951572246 
0.000274631736 
0.0003578348078 
0.0007014274487 
0.0005297916748 
0.0001968160521 
0.0001914845609 
0.000552492354 
0.000437785306 
0.0003002137828 
0.0005106120464 
0.0003235496362 
0.0003508430205 
0.0004952994027 
0.0004420605117 
0.0002832020204 
0.0002447475817 
0.0002936414604 
0.0002076796219 
0.0002398678014 
0.0003952644832 
0.0004090888984 
0.0005766118542 
0.0003995377079 
0.0004342105988 
0.0004107979112 
0.0007144262508 
0.0003825892751 
0.000381294118 
0.0007746970708 
0.0005260732392 
0.0004600916331 
0.0006118289662 
0.0002517625908 
0.000514208025 
0.0003064670753 
0.0003628097574 
0.0002898577417 
0.000224766506 
0.0002560255611 
0.0005982177449 
0.0003616013771 
0.0003305498096 
0.0004365884684 
0.0003487805767 
0.0002578228478 
0.0003510293804 
0.000244450484 
0.0009979768845 
0.0002225354898 
0.0004439729522 
0.0002212425907 
0.0004063889145 
0.0003792392331 
0.000327046411 
0.0002891284977 
0.0007100426574 
0.0003928090246 
0.0003399127833 
0.0001654297171 
0.0002982470086 
0.0005942242076 
0.0006199774426 
0.0007371182471 
0.0006372574318 
0.0003964817433 
0.0004233517645 
0.0002424784953 
0.000306511303 
0.00029878991 
0.0003710063892 
0.0002395547291 
0.0007760664211 
0.0005539083454 
0.0003875395477 
0.0003029919418 
0.0003524271853 
0.0002590462171 
0.0006930778765 
0.0005060057101 
0.0004288850391 
0.0003541230534 
0.0006144060807 
0.0001590567837 
0.0005786134656 
0.0005674083808 
0.0008120710764 
0.0008153715953 
0.0003092883574 
0.0004042149401 
0.0003874502487 
0.0002059666328 
0.0001772096508 
0.000378621342 
0.0003283128295 
0.0002419637688 
0.0002186852568 
0.0002405994857 
0.0004457709265 
0.000355948183 
0.0006175601304 
0.0008060404106 
0.0002144605628 
0.0003998942324 
0.0005221830923 
0.0004706360722 
0.000406478334 
0.0003544522626 
0.0003848360042 
0.0003865112424 
0.0005710176996 
0.0004069431609 
0.0001623180168 
0.000854402275 
0.0004211730451 
0.0004504876911 
0.0006303500318 
0.0003355594376 
7.028211147e-05 
0.0004693369156 
0.0006107202092 
0.0004535833961 
0.0003112993703 
0.0007110054448 
0.000352108056 
0.0003320487445 
0.0004026392103 
0.0002989020236 
0.0003216923954 
0.0001234641693 
0.0005781687646 
0.0004770838478 
0.0005489446124 
0.0003390469119 
0.0005962963494 
0.0005996096682 
0.0002701346135 
0.0005151599306 
0.0002366174429 
0.0004199801533 
0.0003181063443 
0.0004003286388 
0.0005551870166 
0.0004283348038 
0.0003818613275 
0.000271731584 
0.0002117032635 
0.0003168388655 
0.000241336902 
0.0002520064108 
0.0002990792768 
0.0003767955332 
0.0003794170562 
0.0003665533522 
0.0004053422524 
0.0004681657792 
0.0007618579961 
0.0007625717142 
0.0007553819368 
0.0003919054219 
0.0002476917717 
0.0003051847336 
0.0005848994154 
0.0003657105884 
0.0003083159345 
0.00042470052 
0.0005422706586 
0.0004588096753 
0.0002081936957 
0.0004129769695 
0.0003165453944 
0.0003619422492 
0.0002555261947 
0.0003676471026 
0.0006516777135 
0.0005734704182 
0.0007609279393 
0.000538951004 
0.0006712422141 
0.0004047254251 
0.0005590148248 
0.0005477316881 
0.0005615347931 
0.0005970471745 
0.0007209724924 
0.0003818635181 
0.0004507460467 
0.0002953414041 
0.0002702314642 
0.0001993046758 
0.0005636335547 
0.0002291778671 
0.000416986377 
0.0003243424045 
0.0002752243274 
0.0001120083752 
0.0001830770316 
0.000150313383 
0.0001269639349 
0.0002707966633 
0.0002555011122 
0.0003502660953 
0.0005869659003 
0.0003732319461 
0.0003599798872 
0.0004593960507 
0.0001540097981 
0.0002003966227 
0.0003042492534 
0.0004993931865 
0.0002024482208 
0.0001921200757 
0.0003250907726 
0.0003924206169 
0.0002822459334 
0.0001853255177 
0.0002149718806 
0.0003859180907 
0.0003660740701 
0.0003845127476 
0.0001951025006 
0.0003204694344 
0.0002615087475 
0.0004819580368 
0.0004214868477 
0.0004762389664 
0.0002392924582 
0.0004362691073 
0.0003844550594 
0.000435965536 
0.0008482116467 
0.000234428447 
0.0004642610778 
0.0004479459414 
0.0001732905372 
0.0004181312464 
0.0003650834286 
0.0001734035695 
0.0002830022399 
0.0005323558781 
0.0002677377831 
0.0006752606157 
0.0002347434173 
0.0002163617297 
0.0001982174542 
0.0003704492781 
0.0004329973406 
0.0005120135184 
0.0004932387381 
0.0004732870984 
0.0005941499334 
0.0005733092129 
0.0002683089642 
0.0004972625949 
0.0005550482152 
0.0003535317424 
0.0002775425587 
0.0002705240747 
0.0004435345518 
0.0007793364491 
0.0005155281322 
0.0003996817604 
0.000118028306 
0.0002323018874 
0.0002615518288 
0.000195453982 
0.0004754018074 
0.0002960359569 
0.0003621845823 
0.0007630072708 
0.0002742159702 
0.0002752559768 
0.0006500228036 
0.0003994395195 
0.0004079804172 
0.0003381066183 
0.0004177052635 
0.0001567402381 
0.0003557309362 
0.0003032059917 
0.0003760085516 
0.0002395959549 
0.0004761860608 
0.0003867570382 
0.0003983886952 
0.0002219125533 
0.0006057480143 
0.0002102765052 
0.0007349911346 
0.0004838789095 
0.000471240633 
0.0004130158027 
0.0003992012041 
0.0003519446369 
0.0006795559847 
0.0003465642657 
0.0004417879114 
0.000299455843 
0.0003879362312 
0.0001807230875 
0.0001397128856 
0.0003842902147 
0.0002965496951 
0.0003078603614 
0.0001569286112 
0.0002112699203 
0.0003240784892 
0.0002631827495 
0.0004425029406 
0.0007382402589 
0.0002974074768 
0.0002879158173 
0.0002824234483 
0.0004771382095 
0.0006616608516 
0.0004098523141 
0.0003138255766 
0.0003483202503 
0.0002393084309 
0.0004247059586 
0.0004283515442 
0.0004736855347 
0.0004799865774 
0.0005486134231 
0.0006126732098 
0.0005885021013 
0.0003438360383 
0.0003368433357 
0.0003497000884 
0.0002596174623 
0.000331379172 
0.000220656854 
0.0002800452346 
0.0004903001979 
0.0008105127723 
0.0002867399922 
0.0004910285887 
0.0001876562151 
0.0003559195155 