# vtk DataFile Version 3.0
MOAB 4.1.0pre
ASCII
DATASET UNSTRUCTURED_GRID
POINTS 2814 double
0.856077969 -1.01774025 -60.9600182
0.856077969 0.182259783 -60.9600182
0.856077969 -1.01774025 60.9599991
0.856077969 0.182259783 60.9599991
0.431813896 -0.842004299 -60.9600182
0.256077975 -0.417740226 -60.9600182
0.431813896 0.00652385736 -60.9600182
1.28034198 0.00652385736 -60.9600182
1.45607793 -0.417740226 -60.9600182
1.28034198 -0.842004299 -60.9600182
0.856077969 -1.01774025 -60.4742813
0.856077969 -1.01774025 -59.9885445
0.856077969 -1.01774025 -59.5028076
0.856077969 -1.01774025 -59.0170708
0.856077969 -1.01774025 -58.5313339
0.856077969 -1.01774025 -58.0455971
0.856077969 -1.01774025 -57.5598602
0.856077969 -1.01774025 -57.0741234
0.856077969 -1.01774025 -56.5883865
0.856077969 -1.01774025 -56.1026497
0.856077969 -1.01774025 -55.6169128
0.856077969 -1.01774025 -55.131176
0.856077969 -1.01774025 -54.6454391
0.856077969 -1.01774025 -54.1596985
0.856077969 -1.01774025 -53.6739616
0.856077969 -1.01774025 -53.1882248
0.856077969 -1.01774025 -52.7024879
0.856077969 -1.01774025 -52.2167511
0.856077969 -1.01774025 -51.7310143
0.856077969 -1.01774025 -51.2452774
0.856077969 -1.01774025 -50.7595406
0.856077969 -1.01774025 -50.2738037
0.856077969 -1.01774025 -49.7880669
0.856077969 -1.01774025 -49.30233
0.856077969 -1.01774025 -48.8165932
0.856077969 -1.01774025 -48.3308563
0.856077969 -1.01774025 -47.8451157
0.856077969 -1.01774025 -47.3593788
0.856077969 -1.01774025 -46.873642
0.856077969 -1.01774025 -46.3879051
0.856077969 -1.01774025 -45.9021683
0.856077969 -1.01774025 -45.4164314
0.856077969 -1.01774025 -44.9306946
0.856077969 -1.01774025 -44.4449577
0.856077969 -1.01774025 -43.9592209
0.856077969 -1.01774025 -43.473484
0.856077969 -1.01774025 -42.9877472
0.856077969 -1.01774025 -42.5020103
0.856077969 -1.01774025 -42.0162735
0.856077969 -1.01774025 -41.5305328
0.856077969 -1.01774025 -41.044796
0.856077969 -1.01774025 -40.5590591
0.856077969 -1.01774025 -40.0733223
0.856077969 -1.01774025 -39.5875854
0.856077969 -1.01774025 -39.1018486
0.856077969 -1.01774025 -38.6161118
0.856077969 -1.01774025 -38.1303749
0.856077969 -1.01774025 -37.6446381
0.856077969 -1.01774025 -37.1589012
0.856077969 -1.01774025 -36.6731644
0.856077969 -1.01774025 -36.1874275
0.856077969 -1.01774025 -35.7016907
0.856077969 -1.01774025 -35.2159538
0.856077969 -1.01774025 -34.7302132
0.856077969 -1.01774025 -34.2444763
0.856077969 -1.01774025 -33.7587395
0.856077969 -1.01774025 -33.2730026
0.856077969 -1.01774025 -32.7872658
0.856077969 -1.01774025 -32.3015289
0.856077969 -1.01774025 -31.8157921
0.856077969 -1.01774025 -31.3300552
0.856077969 -1.01774025 -30.8443184
0.856077969 -1.01774025 -30.3585815
0.856077969 -1.01774025 -29.8728428
0.856077969 -1.01774025 -29.3871059
0.856077969 -1.01774025 -28.9013691
0.856077969 -1.01774025 -28.4156322
0.856077969 -1.01774025 -27.9298954
0.856077969 -1.01774025 -27.4441586
0.856077969 -1.01774025 -26.9584198
0.856077969 -1.01774025 -26.472683
0.856077969 -1.01774025 -25.9869461
0.856077969 -1.01774025 -25.5012093
0.856077969 -1.01774025 -25.0154724
0.856077969 -1.01774025 -24.5297356
0.856077969 -1.01774025 -24.0439987
0.856077969 -1.01774025 -23.55826
0.856077969 -1.01774025 -23.0725231
0.856077969 -1.01774025 -22.5867863
0.856077969 -1.01774025 -22.1010494
0.856077969 -1.01774025 -21.6153126
0.856077969 -1.01774025 -21.1295757
0.856077969 -1.01774025 -20.6438389
0.856077969 -1.01774025 -20.1581001
0.856077969 -1.01774025 -19.6723633
0.856077969 -1.01774025 -19.1866264
0.856077969 -1.01774025 -18.7008896
0.856077969 -1.01774025 -18.2151527
0.856077969 -1.01774025 -17.7294159
0.856077969 -1.01774025 -17.2436771
0.856077969 -1.01774025 -16.7579403
0.856077969 -1.01774025 -16.2722034
0.856077969 -1.01774025 -15.7864666
0.856077969 -1.01774025 -15.3007298
0.856077969 -1.01774025 -14.814992
0.856077969 -1.01774025 -14.3292551
0.856077969 -1.01774025 -13.8435183
0.856077969 -1.01774025 -13.3577814
0.856077969 -1.01774025 -12.8720436
0.856077969 -1.01774025 -12.3863068
0.856077969 -1.01774025 -11.9005699
0.856077969 -1.01774025 -11.4148321
0.856077969 -1.01774025 -10.9290953
0.856077969 -1.01774025 -10.4433584
0.856077969 -1.01774025 -9.95762062
0.856077969 -1.01774025 -9.47188377
0.856077969 -1.01774025 -8.98614693
0.856077969 -1.01774025 -8.50041008
0.856077969 -1.01774025 -8.01467228
0.856077969 -1.01774025 -7.52893543
0.856077969 -1.01774025 -7.04319811
0.856077969 -1.01774025 -6.55746126
0.856077969 -1.01774025 -6.07172394
0.856077969 -1.01774025 -5.58598709
0.856077969 -1.01774025 -5.10024977
0.856077969 -1.01774025 -4.61451244
0.856077969 -1.01774025 -4.1287756
0.856077969 -1.01774025 -3.64303827
0.856077969 -1.01774025 -3.15730119
0.856077969 -1.01774025 -2.6715641
0.856077969 -1.01774025 -2.18582702
0.856077969 -1.01774025 -1.70008981
0.856077969 -1.01774025 -1.21435273
0.856077969 -1.01774025 -0.728615582
0.856077969 -1.01774025 -0.242878437
0.856077969 -1.01774025 0.242858693
0.856077969 -1.01774025 0.728595853
0.856077969 -1.01774025 1.21433294
0.856077969 -1.01774025 1.70007014
0.856077969 -1.01774025 2.18580723
0.856077969 -1.01774025 2.67154431
0.856077969 -1.01774025 3.1572814
0.856077969 -1.01774025 3.64301872
0.856077969 -1.01774025 4.12875557
0.856077969 -1.01774025 4.61449289
0.856077969 -1.01774025 5.10023022
0.856077969 -1.01774025 5.58596706
0.856077969 -1.01774025 6.07170439
0.856077969 -1.01774025 6.55744123
0.856077969 -1.01774025 7.04317856
0.856077969 -1.01774025 7.52891588
0.856077969 -1.01774025 8.01465321
0.856077969 -1.01774025 8.50039005
0.856077969 -1.01774025 8.9861269
0.856077969 -1.01774025 9.47186375
0.856077969 -1.01774025 9.95760155
0.856077969 -1.01774025 10.4433384
0.856077969 -1.01774025 10.9290752
0.856077969 -1.01774025 11.414813
0.856077969 -1.01774025 11.9005499
0.856077969 -1.01774025 12.3862867
0.856077969 -1.01774025 12.8720245
0.856077969 -1.01774025 13.3577614
0.856077969 -1.01774025 13.8434982
0.856077969 -1.01774025 14.3292351
0.856077969 -1.01774025 14.8149729
0.856077969 -1.01774025 15.3007097
0.856077969 -1.01774025 15.7864466
0.856077969 -1.01774025 16.2721844
0.856077969 -1.01774025 16.7579212
0.856077969 -1.01774025 17.2436581
0.856077969 -1.01774025 17.7293949
0.856077969 -1.01774025 18.2151318
0.856077969 -1.01774025 18.7008705
0.856077969 -1.01774025 19.1866074
0.856077969 -1.01774025 19.6723442
0.856077969 -1.01774025 20.1580811
0.856077969 -1.01774025 20.6438179
0.856077969 -1.01774025 21.1295547
0.856077969 -1.01774025 21.6152916
0.856077969 -1.01774025 22.1010303
0.856077969 -1.01774025 22.5867672
0.856077969 -1.01774025 23.072504
0.856077969 -1.01774025 23.5582409
0.856077969 -1.01774025 24.0439777
0.856077969 -1.01774025 24.5297146
0.856077969 -1.01774025 25.0154533
0.856077969 -1.01774025 25.5011902
0.856077969 -1.01774025 25.986927
0.856077969 -1.01774025 26.4726639
0.856077969 -1.01774025 26.9584007
0.856077969 -1.01774025 27.4441376
0.856077969 -1.01774025 27.9298744
0.856077969 -1.01774025 28.4156132
0.856077969 -1.01774025 28.90135
0.856077969 -1.01774025 29.3870869
0.856077969 -1.01774025 29.8728237
0.856077969 -1.01774025 30.3585606
0.856077969 -1.01774025 30.8442974
0.856077969 -1.01774025 31.3300343
0.856077969 -1.01774025 31.815773
0.856077969 -1.01774025 32.3015099
0.856077969 -1.01774025 32.7872467
0.856077969 -1.01774025 33.2729836
0.856077969 -1.01774025 33.7587204
0.856077969 -1.01774025 34.2444572
0.856077969 -1.01774025 34.7301941
0.856077969 -1.01774025 35.2159309
0.856077969 -1.01774025 35.7016678
0.856077969 -1.01774025 36.1874046
0.856077969 -1.01774025 36.6731453
0.856077969 -1.01774025 37.1588821
0.856077969 -1.01774025 37.644619
0.856077969 -1.01774025 38.1303558
0.856077969 -1.01774025 38.6160927
0.856077969 -1.01774025 39.1018295
0.856077969 -1.01774025 39.5875664
0.856077969 -1.01774025 40.0733032
0.856077969 -1.01774025 40.5590401
0.856077969 -1.01774025 41.0447769
0.856077969 -1.01774025 41.5305138
0.856077969 -1.01774025 42.0162506
0.856077969 -1.01774025 42.5019875
0.856077969 -1.01774025 42.9877281
0.856077969 -1.01774025 43.473465
0.856077969 -1.01774025 43.9592018
0.856077969 -1.01774025 44.4449387
0.856077969 -1.01774025 44.9306755
0.856077969 -1.01774025 45.4164124
0.856077969 -1.01774025 45.9021492
0.856077969 -1.01774025 46.387886
0.856077969 -1.01774025 46.8736229
0.856077969 -1.01774025 47.3593597
0.856077969 -1.01774025 47.8450966
0.856077969 -1.01774025 48.3308334
0.856077969 -1.01774025 48.8165703
0.856077969 -1.01774025 49.3023109
0.856077969 -1.01774025 49.7880478
0.856077969 -1.01774025 50.2737846
0.856077969 -1.01774025 50.7595215
0.856077969 -1.01774025 51.2452583
0.856077969 -1.01774025 51.7309952
0.856077969 -1.01774025 52.216732
0.856077969 -1.01774025 52.7024689
0.856077969 -1.01774025 53.1882057
0.856077969 -1.01774025 53.6739426
0.856077969 -1.01774025 54.1596794
0.856077969 -1.01774025 54.6454163
0.856077969 -1.01774025 55.1311531
0.856077969 -1.01774025 55.61689
0.856077969 -1.01774025 56.1026306
0.856077969 -1.01774025 56.5883675
0.856077969 -1.01774025 57.0741043
0.856077969 -1.01774025 57.5598412
0.856077969 -1.01774025 58.045578
0.856077969 -1.01774025 58.5313148
0.856077969 -1.01774025 59.0170517
0.856077969 -1.01774025 59.5027885
0.856077969 -1.01774025 59.9885254
0.856077969 -1.01774025 60.4742622
0.431813896 -0.842004299 60.9599991
0.256077975 -0.417740226 60.9599991
0.431813896 0.00652385736 60.9599991
0.856077969 0.182259783 60.4742622
0.856077969 0.182259783 59.9885254
0.856077969 0.182259783 59.5027885
0.856077969 0.182259783 59.0170517
0.856077969 0.182259783 58.5313148
0.856077969 0.182259783 58.045578
0.856077969 0.182259783 57.5598412
0.856077969 0.182259783 57.0741043
0.856077969 0.182259783 56.5883675
0.856077969 0.182259783 56.1026306
0.856077969 0.182259783 55.61689
0.856077969 0.182259783 55.1311531
0.856077969 0.182259783 54.6454163
0.856077969 0.182259783 54.1596794
0.856077969 0.182259783 53.6739426
0.856077969 0.182259783 53.1882057
[...]
CELL_DATA 9464
SCALARS TALLY_TAG double 1
LOOKUP_TABLE default
0.01118619841 
0.008291279781 
0.007020381122 
0.007764754098 
0.01345435791 
0.01690173747 
0.01042957066 
0.01358450928 
0.007586252945 
0.005701171431 
0.01200124912 
0.006105933281 
0.004185707063 
0.01012190654 
0.006497602831 
0.005418954317 
0.007902722237 
0.008561613503 
0.01341746359 
0.00793203875 
0.01195890444 
0.01228025163 
0.01515471413 
0.01236505203 
0.00758669674 
0.01636317789 
0.009795272925 
0.01220840728 
0.008225014629 
0.01189118053 
0.005526555434 
0.005520830523 
0.01084688367 
0.006674524994 
0.01453453649 
0.01016446723 
0.01003835754 
0.01256414323 
0.008978525221 
0.01195703258 
0.01017398839 
0.008227396965 
0.005863312796 
0.01100934702 
0.006935955918 
0.006451740978 
0.009544864288 
0.007376667504 
0.01336240941 
0.009955985352 
0.007616220036 
0.009839096578 
0.009691185641 
0.009143817789 
0.008708647015 
0.02088241488 
0.01774130455 
0.004712920214 
0.01342488456 
0.01586650157 
0.01214783764 
0.01205082042 
0.007883793856 
0.004873555546 
0.005198872531 
0.007051738004 
0.006645779392 
0.01179203578 
0.005710696323 
0.008056450982 
0.003421173322 
0.005012194299 
0.006544620841 
0.007704010945 
0.00568039557 
0.01469150293 
0.007404086556 
0.007834833082 
0.008101507276 
0.01415266975 
0.009284016001 
0.008170073898 
0.00485355826 
0.003913090697 
0.007741003874 
0.009950414431 
0.00729661007 
0.008748738895 
0.003232032557 
0.005254666761 
0.009319807171 
0.006730894862 
0.01079315201 
0.01600415082 
0.01338719715 
0.008161366461 
0.01036195887 
0.01404252013 
0.008916412197 
0.01151945221 
0.01145192248 
0.01458917349 
0.01369714068 
0.009604061461 
0.01205287405 
0.006815976547 
0.01259549892 
0.007100349547 
0.008338057303 
0.008195340436 
0.005646727936 
0.003586929018 
0.00748254082 
0.00607951279 
0.01642386112 
0.01035374451 
0.007473771222 
0.01150002185 
0.01224728994 
0.01433069905 
0.006672690303 
0.006246656481 
0.008829585371 
0.009624308405 
0.009121088997 
0.007936222285 
0.006410202398 
0.007745862525 
0.009462426597 
0.006007797042 
0.009045010852 
0.007626740864 
0.006655105404 
0.00848518161 
0.008559966034 
0.005028632314 
0.005334626469 
0.007674976728 
0.01370113938 
0.01506482248 
0.007951938414 
0.01107480496 
0.01298427419 
0.01159580846 
0.006035362219 
0.01505215958 
0.008913363268 
0.006010577586 
0.01403557558 
0.005571815124 
0.006042505964 
0.01242435595 
0.006459761055 
0.006770118296 
0.009062532962 
0.01002014897 
0.006739677493 
0.008841333438 
0.008217881144 
0.006872498808 
0.01104095593 
0.006492372069 
0.007417712868 
0.01000017282 
0.01210395796 
0.005643611683 
0.01261169979 
0.01237350901 
0.01252803658 
0.004693078711 
0.007515868006 
0.01253490637 
0.005412793222 
0.02044765777 
0.009498665492 
0.01410571571 
0.01342117916 
0.02441881092 
0.00652095598 
0.01028130293 
0.01112928322 
0.01602383791 
0.0110680542 
0.007907225537 
0.004673941959 
0.007434681288 
0.006170900643 
0.004735831357 
0.006828554737 
0.003912804358 
0.003784791644 
0.005109283226 
0.003699450966 
0.004238988032 
0.009857708274 
0.01269707154 
0.00975044536 
0.007937618671 
0.005474254608 
0.01351311946 
0.006855037433 
0.005338187656 
0.01781633524 
0.007564011662 
0.00541683562 
0.005652499724 
0.009569203032 
0.01036120418 
0.008389746803 
0.01149673601 
0.009742277712 
0.005416422011 
0.007300673503 
0.005529648205 
0.006389094111 
0.007158360475 
0.008478275161 
0.00535288309 
0.006550489841 
0.01214850992 
0.01821484898 
0.009633885088 
0.01303137944 
0.01228608406 
0.005582843824 
0.005487538359 
0.005032189058 
0.01266308757 
0.007863306831 
0.006750957658 
0.007367652539 
0.01347454008 
0.008967371792 
0.009975052545 
0.0105599079 
0.02169499866 
0.01996126381 
0.01569826349 
0.006987764131 
0.005018859786 
0.008434373076 
0.007162133452 
0.006466342642 
0.006998749949 
0.02081372731 
0.01225569402 
0.00461563166 
0.009911809634 
0.00878221337 
0.01110246236 
0.007158354393 
0.01050794428 
0.01143060728 
0.01001714452 
0.01075752097 
0.007701340945 
0.01473006354 
0.01074287446 
0.0141038101 
0.01002601869 
0.01338429778 
0.01503895547 
0.01781555632 
0.01010177931 
0.02044346413 
0.01122073432 
0.0130852215 
0.01110567297 
0.01421540595 
0.01091570052 
0.007907244101 
0.00978103618 
0.008616678952 
0.003239275712 
0.006416151054 
0.008889490532 
0.0174222691 
0.00935551324 
0.007868986692 
0.008165958055 
0.007936192247 
0.01431468814 
0.008919761093 
0.008977359773 
0.004491243055 
0.004678257929 
0.006142329897 
0.01024112646 
0.01535027185 
0.01061770782 
0.006293047228 
0.01682978311 
0.007853871091 
0.007412633529 
0.005270679351 
0.01171057466 
0.01015141113 
0.009380400571 
0.01063807927 
0.01064320367 
0.01218672091 
0.009053437464 
0.0113182508 
0.01473050371 
0.005288159622 
0.005448335877 
0.01088113513 
0.009610454377 
0.01421539727 
0.006277345238 
0.006850575172 
0.00859212504 
0.006234082526 
0.008036853046 
0.0135698458 
0.01191679854 
0.004310612828 
0.0124358647 
0.007090973029 
0.007064633823 
0.00491483211 
0.009804186446 
0.006796830651 
0.008176801094 
0.006181798886 
0.006795371533 
0.004283695806 
0.004814884777 
0.004564207289 
0.006458162192 
0.01124245584 
0.01207211333 
0.0144322982 
0.0141237582 
0.01174697888 
0.00591790252 
0.01269274353 
0.012667065 
0.006267706219 
0.01049739461 
0.004043115451 
0.01290792144 
0.01072190413 
0.01197634801 
0.01049268417 
0.01398205088 
0.007774247568 
0.01278131594 
0.01388620272 
0.01574113216 
0.006870158601 
0.00774345056 
0.008797876384 
0.01640453377 
0.01139669278 
0.01133106292 
0.01242634189 
0.009138316788 
0.007027557248 
0.009403870516 
0.008115416855 
0.00756508524 
0.005327597152 
0.01360294008 
0.01082873091 
0.008331996263 
0.006144637964 
0.005752191899 
0.006519975438 
0.006329743666 
0.007423215158 
0.006217689953 
0.006552061178 
0.005755834419 
0.003990416984 
0.008260165861 
0.009381686185 
0.008436616553 
0.01215533653 
0.01187743359 
0.01849879068 
0.01337815684 
0.003789870919 
0.006971051965 
0.01540565484 
0.006187675968 
0.01143175779 
0.009002493082 
0.005255538632 
0.01446582766 
0.01453460164 
0.01156814198 
0.006515345698 
0.0123895552 
0.01505414273 
0.005139230412 
0.01341107619 
0.007386868077 
0.005863888144 
0.005025468164 
0.007129322584 
0.005359426824 
0.00528539737 
0.006990633896 
0.007686885882 
0.009501792987 
0.004873989398 
0.005839762679 
0.008516274122 
0.005019055963 
0.00763062586 
0.009400041215 
0.006351845882 
0.007921724028 
0.004038279905 
0.01247805362 
0.004018988886 
0.005724518196 
0.006197127631 
0.005259152619 
0.006779037634 
0.01701287145 
0.01702959775 
0.02743042012 
0.009847847911 
0.00858213403 
0.01405648443 
0.01038311583 
0.01084606239 
0.008527994589 
0.006413721216 
0.007669595074 
0.005126687047 
0.007016715112 
0.009488187631 
0.004986800738 
0.01005856623 
0.0099860916 
0.01322447998 
0.01116138476 
0.006465068656 
0.006037353794 
0.008076007385 
0.005524189903 
0.00821592559 
0.003589186741 
0.003814113639 
0.005523535819 
0.004565778399 
0.005836464142 
0.01013484899 
0.00913949943 
0.00881132034 
0.006540973727 
0.007456652512 
0.004836421938 
0.008293128727 
0.007544582851 
0.005284693265 
0.005038341724 
0.008852389932 
0.005807830441 
0.01211535673 
0.01213850407 
0.01084895735 
0.00504262481 
0.007979381573 
0.004486599798 
0.008578654211 
0.007377407969 
0.005398071965 
0.005108952569 
0.009805660288 
0.008801288314 
0.007639540821 
0.01027714008 
0.007261644684 
0.009573300388 
0.005204756606 
0.007824999401 
0.01379534742 
0.007982890854 
0.0142292068 
0.009521632383 
0.009651369666 
0.003494880043 
0.009822715526 
0.006569062362 
0.009623595084 
0.003148360741 
0.009223316843 
0.01146105601 
0.005554713059 
0.00798128118 
0.01581317855 
0.006730924129 
0.00390027027 
0.005411401354 
0.007559249548 
0.006964320703 
0.0055143792 
0.01279079049 
0.00975882628 
0.00934192326 
0.01139903712 
0.008301194565 
0.007011889093 
0.00587088118 
0.004789510505 
0.006441572814 
0.008729700835 
0.01112276596 
0.008737979921 
0.008858942843 
0.009602413109 
0.0149514633 
0.01831906061 
0.01109492661 
0.006965128939 
0.004965838941 
0.008264265056 
0.007450025742 
0.00780857439 
0.008071548467 
0.01259125361 
0.007453100915 
0.0138215206 
0.01156814 
0.01071470948 
0.007454732443 
0.01030861174 
0.01198433331 
0.01099401097 
0.006215393418 
0.009513961545 
0.006783214735 
0.007136263433 
0.007551482722 
0.00495455373 
0.01074263966 
0.005225664263 
0.004990541144 
0.008530558921 
0.01048887776 
0.0087363156 
0.006143256014 
0.01369711417 
0.007851915732 
0.009201325781 
0.008259376642 
0.006841977841 
0.006012269207 
0.005905189986 
0.00582943531 
0.01310040224 
0.01653943067 
0.007638861036 
0.01072082948 
0.01126583387 
0.01744593403 
0.006782069274 
0.006736824328 
0.005850039566 
0.004890735918 
0.006621640992 
0.006115794433 
0.008897060756 
0.007131116223 
0.006050054795 
0.009571661021 
0.009386391681 
0.01581545306 
0.009428820714 
0.01206404649 
0.007340188741 
0.01419102354 
0.009154729284 
0.004436837635 
0.005119738804 
0.005536228525 
0.01123338493 
0.005410190634 
0.006140984109 
0.006416206009 
0.004723799501 
0.009574474058 
0.01209744515 
0.008577668544 
0.006109673261 
0.00828914457 
0.007396177392 
0.007963438437 
0.01097668622 
0.01041184071 
0.005852614762 
0.005166549915 
0.008059105612 
0.006184351266 
0.006276641324 
0.00887740708 
0.01108500792 
0.01223437899 
0.01534185281 
0.01138432545 
0.01158311564 
0.008812241338 
0.01213666181 
0.01005303617 
0.009180191779 
0.008297187171 
0.007002882138 
0.004176286958 
0.005631196766 
0.01213233104 
0.009592408099 
0.00645156564 
0.006159781711 
0.02143297693 
0.01219540176 
0.01741420036 
0.008272294642 
0.009132313984 
0.00934313974 
0.007094202463 
0.004723244157 
0.007324518431 
0.01502966272 
0.01418749814 
0.01002424292 
0.01613748019 
0.01103362514 
0.0104038433 
0.009013154449 
0.02073264932 
0.007676206602 
0.01149795132 
0.004742872978 
0.007334047677 
0.006918802145 
0.009084941477 
0.009482690523 
0.008840998943 
0.004421204647 
0.006542226969 
0.008937726828 
0.008899281246 
0.009048031258 
0.01095742503 
0.009578489146 
0.0127867006 
0.009494548725 
0.009384488951 
0.01659809296 
0.016736208 
0.006473629799 
0.01095083142 
0.005085059851 
0.01195840703 
0.009965010672 
0.01332903419 
0.006393380757 
0.01019407776 
0.008807575801 
0.006580867873 
0.006275064066 
0.01082094653 
0.007110836613 
0.006895741247 
0.007424150356 
0.005632052153 
0.005884340398 
0.006089463645 
0.005845099894 
0.005249485252 
0.006718376583 
0.01144221452 
0.0069202442 
0.006652845943 
0.006233006085 
0.005129044404 
0.009012141739 
0.007027135604 
0.0106553556 
0.01218051161 
0.009260121106 
0.008174674326 
0.005511937665 
0.004434203731 
0.01017133241 
0.00699572623 
0.01050738885 
0.008778518464 
0.005978466717 
0.01051825556 
0.009305237357 
0.007275650776 
0.004111676376 
0.007825654807 
0.003487925664 
0.006859094615 
0.007269913105 
0.004828963097 
0.009061530036 
0.006387308298 
0.004146152109 
0.007650796198 
0.01165226727 
0.003382525146 
0.006149816122 
0.005105012961 
0.007136133436 
0.009556839206 
0.008820366075 
0.006800563498 
0.01115872198 
0.007391457436 
0.00795502624 
0.01118641486 
0.016004995 
0.009270427741 
0.009723388358 
0.009079573109 
0.01019896191 
0.005789885263 
0.008577968264 
0.01147090432 
0.00828351645 
0.009881493795 
0.01211799073 
0.006000987049 
0.00550243989 
0.004955167794 
0.009585123911 
0.008299453539 
0.009534621202 
0.0108740575 
0.01183408138 
0.02042931505 
0.007175727272 
0.009132355164 
0.009892019969 
0.0140810522 
0.009242000089 
0.008076587714 
0.01019226632 
0.007177282547 
0.005208961132 
0.00646995593 
0.01013792697 
0.004245359412 
0.009383173216 
0.005887459727 
0.008023245483 
0.005178213241 
0.009553242348 
0.007864428617 
0.007508370435 
0.01248442536 
0.009915596471 
0.004913326682 
0.007239296501 
0.007367443383 
0.01242651597 
0.009698797917 
0.01061178349 
0.01751665964 
0.01152261491 
0.006805383236 
0.0109341437 
0.007772718195 
0.01479832682 
0.009987351396 
0.005695277006 
0.01044656582 
0.006185987653 
0.005591174616 
0.006482071921 
0.009017804874 
0.008816416946 
0.009582054816 
0.01409083419 
0.01343323065 
0.01545650549 
0.0128446863 
0.01213447298 
0.01040241054 
0.00805583985 
0.007620595875 
0.00880359053 
0.008644650245 
0.009733293206 
0.006638042834 
0.005631041272 
0.004557332531 
0.003841534596 
0.01009592469 
0.005626013393 
0.007530375241 
0.007324135337 
0.006902958039 
0.01019729889 
0.008028188339 
0.008072464491 
0.01091278073 
0.006463106824 
0.005855192118 
0.005775197458 
0.009025207961 
0.005213767394 
0.006987915744 
0.007288474521 
0.01195682947 
0.01095080416 
0.01405733684 
0.01441421061 
0.00734972957 
0.01338514349 
0.01332778597 
0.006012707695 
0.01459046831 
0.01621570085 
0.01518604043 
0.008280201674 
0.01057666746 
0.007366890015 
0.01649498021 
0.01592664242 
0.008911707811 
0.01265910823 
0.01415281139 
0.01259098922 
0.007050902392 
0.009568423754 
0.0117408853 
0.02105886155 
0.004724546503 
0.01612493147 
0.003970257838 
0.006506764475 
0.006268723023 
0.004684035318 
0.004448717706 
0.005755126569 
0.008069549481 
0.007355458367 
0.008310214767 
0.01161993665 
0.009682038903 
0.0150766827 
0.004458674655 
0.007027395302 
0.008445549216 
0.006603485865 
0.007490484567 
0.01137838583 
0.01143379792 
0.01467339413 
0.01204839413 
0.01219706743 
0.007889135934 
0.01695666755 
0.01277987995 
0.007683919964 
0.005624922362 
0.009742131845 
0.006525044121 
0.004789821542 
0.00565270934 
0.01420315554 
0.01450834614 
0.007485910273 
0.005439428336 
0.01038071434 
0.01588384622 
0.01258319962 
0.01061632403 
0.01089427258 
0.005507321263 
0.006692525477 
0.01271580709 
0.008881912084 
0.01155240677 
0.01342440417 
0.01076865852 
0.0123231397 
0.007041802698 
0.008838869043 
0.01096419064 
0.008070190948 
0.0048063477 
0.006192446438 
0.007659834664 
0.0136019558 
0.007337196447 
0.01273931677 
0.002890909866 
0.003321131264 
0.006450638739 
0.003968039612 
0.003062346088 
0.006379959214 
0.009675260491 
0.008626439535 
0.01211366839 
0.01466169294 
0.00841810413 
0.013285179 
0.004190473897 
0.00780938809 
0.01087981995 
0.009069081782 
0.01148516674 
0.01139501393 
0.006898297057 
0.009635234905 
0.004082487985 
0.008992203232 
0.009072073767 
0.008414276408 
0.01425944909 
0.006126094229 
0.00856221118 
0.006280281472 
0.006541431487 
0.00524560314 
0.0114284728 
0.01054910186 
0.01143616699 
0.01185681712 
0.01129883645 
0.007220099233 
0.006708196638 
0.01440186299 
0.008672822509 
0.01194687247 
0.01232944263 
0.01639326449 
0.009075857495 
0.005484452166 
0.005659032336 
0.003682222447 
0.006346460848 
0.004813100018 
0.01051988387 
0.01434875605 
0.01135277218 
0.01271245733 
0.008141504806 
0.009448952877 
0.005513004011 
0.009414755625 
0.006622418446 
0.007197263498 
0.004668188794 
0.005903660104 
0.008744225204 
0.005375058444 
0.01036050646 
0.009055003052 
0.009373830118 
0.007591440347 
0.005576466523 
0.01164612461 
0.01850648668 
0.01126889043 
0.01211591681 
0.01001267891 
0.00619460374 
0.007711479359 
0.00709129788 
0.004994755582 
0.007377298126 
0.00801760099 
0.009664300722 
0.01218965535 
0.00461584446 
0.00817077543 
0.00373105515 
0.01151795843 
0.01418013173 
0.01186228934 
0.01030917806 
0.009261377489 
0.01133649005 
0.007002037698 
0.01633254815 
0.009659859481 
0.008273939083 
0.006894988505 
0.01132043923 
0.01338432887 
0.00912286756 
0.005781045318 
0.008896018655 
0.006133900701 
0.010190158 
0.002734507815 
0.007872078257 
0.01230068949 
0.01097192514 
0.01485737999 
0.008135682989 
0.01256554679 
0.0127954049 
0.006710694813 
0.01133812771 
0.01091107584 
0.008727237277 
0.009076742686 
0.009272312922 
0.01577677485 
0.01380167496 
0.006835345691 
0.01124023726 
0.00985080641 
0.006087065797 
0.00228946092 
0.008011072826 
0.007932498566 
0.01015870617 
0.007460782488 
0.007209655468 
0.007673353338 
0.007502976742 
0.01144593631 
0.01700201243 
0.008201147025 
0.01699788155 
0.01001818389 
0.007386244546 
0.004285768467 
0.006109538727 
0.01327735768 
0.003544838919 
0.008469760021 
0.01281644294 
0.01370746918 
0.01185174903 
0.009700757458 
0.01205195416 
0.005321259617 
0.01005737606 
0.008911382282 
0.007056640225 
0.005246685706 
0.006948859537 
0.01001578567 
0.006655480639 
0.004894616156 
0.005254327135 
0.007783560329 
0.01033254349 
0.01066948917 
0.009010440096 
0.009252667459 
0.008844193547 
0.009515458604 
0.008902893965 
0.0129127051 
0.01311209506 
0.009676661265 
0.005154368884 
0.01241946123 
0.01422240982 
0.004847261235 
0.006542644343 
0.01155912071 
0.008077203646 
0.009944308659 
0.01182902166 
0.008455461701 
0.005848022879 
0.01379612161 
0.01346906818 
0.0103058816 
0.01060840528 
0.01011504798 
0.01054727577 
0.005400500061 
0.01622376688 
0.01282284787 
0.004786100454 
0.006621556946 
0.01057130491 
0.007096135271 
0.0110396329 
0.00607163654 
0.006460585396 
0.01200726534 
0.01355970543 
0.007455460852 
0.004306784516 
0.006809072476 
0.007540328503 
0.004731872228 
0.007156763378 
0.01180875653 
0.00763988384 
0.008313252087 
0.01033808539 
0.003374856984 
0.003929614322 
0.006928486187 
0.008854979713 
0.003495261486 
0.009588624486 
0.01083967557 
0.01012539783 
0.01537267626 
0.007673577541 
0.01151160375 
0.01173524549 
0.008000637545 
0.01629563378 
0.01345253617 
0.01220810841 
0.006174002689 
0.007621589418 
0.01004829616 
0.006045643595 
0.005551564799 
0.007073199017 
0.007902384239 
0.007229273369 
0.007667050185 
0.00831897949 
0.00659107679 
0.003882839257 
0.008245647101 
0.004843290954 
0.005844401883 
0.005301779303 
0.00800545714 
0.01323287294 
0.008101521598 
0.009786373188 
0.01203372321 
0.01400850451 
0.01149898014 
0.006941010696 
0.01150078721 
0.0106680411 
0.01151559538 
0.0129614007 
0.01600470304 
0.01066973699 
0.008401401007 
0.009173830261 
0.006080077245 
0.01039697415 
0.01036151496 
0.005903906598 
0.007785170193 
0.002514080253 
0.007695320005 
0.009794314359 
0.006020183983 
0.007886137904 
0.004439684524 
0.01135793246 
0.007598252064 
0.006158239104 
0.01071350612 
0.004283212371 
0.004619765526 
0.005452729988 
0.003278547867 
0.004107150658 
0.007836933595 
0.006556392473 
0.01071199879 
0.01092415371 
0.008146839516 
0.006274590816 
0.02017798098 
0.009652646934 
0.009673149171 
0.009899992106 
0.009601389981 
0.008567358575 
0.02867654112 
0.01381065102 
0.004367303004 
0.01254557362 
0.009046518071 
0.004492776855 
0.008213334867 
0.007594570841 
0.0104109611 
0.01049524576 
0.0113247501 
0.01115596984 
0.008082832193 
0.01063560152 
0.007812602034 
0.008674943736 
0.01275144603 
0.00870995866 
0.01352755874 
0.009671295032 
0.006195302995 
0.009646677776 
0.008857657927 
0.01277604584 
0.009835422458 
0.004575399476 
0.004099719346 
0.005426027573 
0.003455433566 
0.006380929678 
0.005855060018 
0.009184110885 
0.01100435668 
0.007839144449 
0.006919636711 
0.007441196645 
0.007760617359 
0.004686980512 
0.006965187418 
0.007741214874 
0.005430803223 
0.01099093022 
0.006008761342 
0.0103925127 
0.008523299619 
0.01307345357 
0.01390375141 
0.0114729204 
0.009727999319 
0.00461931024 
0.005616326769 
0.007189861456 
0.01042187985 
0.006163971619 
0.01039790658 
0.006950968083 
0.007530970924 
0.007455229504 
0.009526285845 
0.009048975766 
0.008200748074 
0.004629737322 
0.005912721506 
0.006095705203 
0.007362589966 
0.008864977446 
0.01054491643 
0.0142194047 
0.003316588991 
0.008796399423 
0.006848954115 
0.008822636647 
0.01275260203 
0.002798617982 
0.003956986762 
0.001137380145 
0.007258273693 
0.007120730457 
0.007050135322 
0.01316342583 
0.007700301356 
0.007225654486 
0.009153400666 
0.007601504664 
0.01760756687 
0.007897198045 
0.01289285645 
0.004661876355 
0.01066053916 
0.006657106931 
0.01058475096 
0.009993374726 
0.009892589898 
0.006315647865 
0.0102955706 
0.01497191145 
0.01321843646 
0.005480918653 
0.004799060458 
0.008731376806 
0.01107685449 
0.01770028415 