# vtk DataFile Version 3.0
MOAB 4.1.0pre
ASCII
DATASET UNSTRUCTURED_GRID
POINTS 2806 double
-0.840952218 -0.152589679 -60.9600182
-0.840952218 1.04741037 -60.9600182
-0.840952218 -0.152589679 60.9599991
-0.840952218 1.04741037 60.9599991
-1.26521635 0.0231462456 -60.9600182
-1.4409523 0.447410315 -60.9600182
-1.26521635 0.871674359 -60.9600182
-0.416688174 0.871674359 -60.9600182
-0.240952253 0.447410315 -60.9600182
-0.416688174 0.0231462456 -60.9600182
-0.840952218 -0.152589679 -60.4742813
-0.840952218 -0.152589679 -59.9885445
-0.840952218 -0.152589679 -59.5028076
-0.840952218 -0.152589679 -59.0170708
-0.840952218 -0.152589679 -58.5313339
-0.840952218 -0.152589679 -58.0455971
-0.840952218 -0.152589679 -57.5598602
-0.840952218 -0.152589679 -57.0741234
-0.840952218 -0.152589679 -56.5883865
-0.840952218 -0.152589679 -56.1026497
-0.840952218 -0.152589679 -55.6169128
-0.840952218 -0.152589679 -55.131176
-0.840952218 -0.152589679 -54.6454391
-0.840952218 -0.152589679 -54.1596985
-0.840952218 -0.152589679 -53.6739616
-0.840952218 -0.152589679 -53.1882248
-0.840952218 -0.152589679 -52.7024879
-0.840952218 -0.152589679 -52.2167511
-0.840952218 -0.152589679 -51.7310143
-0.840952218 -0.152589679 -51.2452774
-0.840952218 -0.152589679 -50.7595406
-0.840952218 -0.152589679 -50.2738037
-0.840952218 -0.152589679 -49.7880669
-0.840952218 -0.152589679 -49.30233
-0.840952218 -0.152589679 -48.8165932
-0.840952218 -0.152589679 -48.3308563
-0.840952218 -0.152589679 -47.8451157
-0.840952218 -0.152589679 -47.3593788
-0.840952218 -0.152589679 -46.873642
-0.840952218 -0.152589679 -46.3879051
-0.840952218 -0.152589679 -45.9021683
-0.840952218 -0.152589679 -45.4164314
-0.840952218 -0.152589679 -44.9306946
-0.840952218 -0.152589679 -44.4449577
-0.840952218 -0.152589679 -43.9592209
-0.840952218 -0.152589679 -43.473484
-0.840952218 -0.152589679 -42.9877472
-0.840952218 -0.152589679 -42.5020103
-0.840952218 -0.152589679 -42.0162735
-0.840952218 -0.152589679 -41.5305328
-0.840952218 -0.152589679 -41.044796
-0.840952218 -0.152589679 -40.5590591
-0.840952218 -0.152589679 -40.0733223
-0.840952218 -0.152589679 -39.5875854
-0.840952218 -0.152589679 -39.1018486
-0.840952218 -0.152589679 -38.6161118
-0.840952218 -0.152589679 -38.1303749
-0.840952218 -0.152589679 -37.6446381
-0.840952218 -0.152589679 -37.1589012
-0.840952218 -0.152589679 -36.6731644
-0.840952218 -0.152589679 -36.1874275
-0.840952218 -0.152589679 -35.7016907
-0.840952218 -0.152589679 -35.2159538
-0.840952218 -0.152589679 -34.7302132
-0.840952218 -0.152589679 -34.2444763
-0.840952218 -0.152589679 -33.7587395
-0.840952218 -0.152589679 -33.2730026
-0.840952218 -0.152589679 -32.7872658
-0.840952218 -0.152589679 -32.3015289
-0.840952218 -0.152589679 -31.8157921
-0.840952218 -0.152589679 -31.3300552
-0.840952218 -0.152589679 -30.8443184
-0.840952218 -0.152589679 -30.3585815
-0.840952218 -0.152589679 -29.8728428
-0.840952218 -0.152589679 -29.3871059
-0.840952218 -0.152589679 -28.9013691
-0.840952218 -0.152589679 -28.4156322
-0.840952218 -0.152589679 -27.9298954
-0.840952218 -0.152589679 -27.4441586
-0.840952218 -0.152589679 -26.9584198
-0.840952218 -0.152589679 -26.472683
-0.840952218 -0.152589679 -25.9869461
-0.840952218 -0.152589679 -25.5012093
-0.840952218 -0.152589679 -25.0154724
-0.840952218 -0.152589679 -24.5297356
-0.840952218 -0.152589679 -24.0439987
-0.840952218 -0.152589679 -23.55826
-0.840952218 -0.152589679 -23.0725231
-0.840952218 -0.152589679 -22.5867863
-0.840952218 -0.152589679 -22.1010494
-0.840952218 -0.152589679 -21.6153126
-0.840952218 -0.152589679 -21.1295757
-0.840952218 -0.152589679 -20.6438389
-0.840952218 -0.152589679 -20.1581001
-0.840952218 -0.152589679 -19.6723633
-0.840952218 -0.152589679 -19.1866264
-0.840952218 -0.152589679 -18.7008896
-0.840952218 -0.152589679 -18.2151527
-0.840952218 -0.152589679 -17.7294159
-0.840952218 -0.152589679 -17.2436771
-0.840952218 -0.152589679 -16.7579403
-0.840952218 -0.152589679 -16.2722034
-0.840952218 -0.152589679 -15.7864666
-0.840952218 -0.152589679 -15.3007298
-0.840952218 -0.152589679 -14.814992
-0.840952218 -0.152589679 -14.3292551
-0.840952218 -0.152589679 -13.8435183
-0.840952218 -0.152589679 -13.3577814
-0.840952218 -0.152589679 -12.8720436
-0.840952218 -0.152589679 -12.3863068
-0.840952218 -0.152589679 -11.9005699
-0.840952218 -0.152589679 -11.4148321
-0.840952218 -0.152589679 -10.9290953
-0.840952218 -0.152589679 -10.4433584
-0.840952218 -0.152589679 -9.95762062
-0.840952218 -0.152589679 -9.47188377
-0.840952218 -0.152589679 -8.98614693
-0.840952218 -0.152589679 -8.50041008
-0.840952218 -0.152589679 -8.01467228
-0.840952218 -0.152589679 -7.52893543
-0.840952218 -0.152589679 -7.04319811
-0.840952218 -0.152589679 -6.55746126
-0.840952218 -0.152589679 -6.07172394
-0.840952218 -0.152589679 -5.58598709
-0.840952218 -0.152589679 -5.10024977
-0.840952218 -0.152589679 -4.61451244
-0.840952218 -0.152589679 -4.1287756
-0.840952218 -0.152589679 -3.64303827
-0.840952218 -0.152589679 -3.15730119
-0.840952218 -0.152589679 -2.6715641
-0.840952218 -0.152589679 -2.18582702
-0.840952218 -0.152589679 -1.70008981
-0.840952218 -0.152589679 -1.21435273
-0.840952218 -0.152589679 -0.728615582
-0.840952218 -0.152589679 -0.242878437
-0.840952218 -0.152589679 0.242858693
-0.840952218 -0.152589679 0.728595853
-0.840952218 -0.152589679 1.21433294
-0.840952218 -0.152589679 1.70007014
-0.840952218 -0.152589679 2.18580723
-0.840952218 -0.152589679 2.67154431
-0.840952218 -0.152589679 3.1572814
-0.840952218 -0.152589679 3.64301872
-0.840952218 -0.152589679 4.12875557
-0.840952218 -0.152589679 4.61449289
-0.840952218 -0.152589679 5.10023022
-0.840952218 -0.152589679 5.58596706
-0.840952218 -0.152589679 6.07170439
-0.840952218 -0.152589679 6.55744123
-0.840952218 -0.152589679 7.04317856
-0.840952218 -0.152589679 7.52891588
-0.840952218 -0.152589679 8.01465321
-0.840952218 -0.152589679 8.50039005
-0.840952218 -0.152589679 8.9861269
-0.840952218 -0.152589679 9.47186375
-0.840952218 -0.152589679 9.95760155
-0.840952218 -0.152589679 10.4433384
-0.840952218 -0.152589679 10.9290752
-0.840952218 -0.152589679 11.414813
-0.840952218 -0.152589679 11.9005499
-0.840952218 -0.152589679 12.3862867
-0.840952218 -0.152589679 12.8720245
-0.840952218 -0.152589679 13.3577614
-0.840952218 -0.152589679 13.8434982
-0.840952218 -0.152589679 14.3292351
-0.840952218 -0.152589679 14.8149729
-0.840952218 -0.152589679 15.3007097
-0.840952218 -0.152589679 15.7864466
-0.840952218 -0.152589679 16.2721844
-0.840952218 -0.152589679 16.7579212
-0.840952218 -0.152589679 17.2436581
-0.840952218 -0.152589679 17.7293949
-0.840952218 -0.152589679 18.2151318
-0.840952218 -0.152589679 18.7008705
-0.840952218 -0.152589679 19.1866074
-0.840952218 -0.152589679 19.6723442
-0.840952218 -0.152589679 20.1580811
-0.840952218 -0.152589679 20.6438179
-0.840952218 -0.152589679 21.1295547
-0.840952218 -0.152589679 21.6152916
-0.840952218 -0.152589679 22.1010303
-0.840952218 -0.152589679 22.5867672
-0.840952218 -0.152589679 23.072504
-0.840952218 -0.152589679 23.5582409
-0.840952218 -0.152589679 24.0439777
-0.840952218 -0.152589679 24.5297146
-0.840952218 -0.152589679 25.0154533
-0.840952218 -0.152589679 25.5011902
-0.840952218 -0.152589679 25.986927
-0.840952218 -0.152589679 26.4726639
-0.840952218 -0.152589679 26.9584007
-0.840952218 -0.152589679 27.4441376
-0.840952218 -0.152589679 27.9298744
-0.840952218 -0.152589679 28.4156132
-0.840952218 -0.152589679 28.90135
-0.840952218 -0.152589679 29.3870869
-0.840952218 -0.152589679 29.8728237
-0.840952218 -0.152589679 30.3585606
-0.840952218 -0.152589679 30.8442974
-0.840952218 -0.152589679 31.3300343
-0.840952218 -0.152589679 31.815773
-0.840952218 -0.152589679 32.3015099
-0.840952218 -0.152589679 32.7872467
-0.840952218 -0.152589679 33.2729836
-0.840952218 -0.152589679 33.7587204
-0.840952218 -0.152589679 34.2444572
-0.840952218 -0.152589679 34.7301941
-0.840952218 -0.152589679 35.2159309
-0.840952218 -0.152589679 35.7016678
-0.840952218 -0.152589679 36.1874046
-0.840952218 -0.152589679 36.6731453
-0.840952218 -0.152589679 37.1588821
-0.840952218 -0.152589679 37.644619
-0.840952218 -0.152589679 38.1303558
-0.840952218 -0.152589679 38.6160927
-0.840952218 -0.152589679 39.1018295
-0.840952218 -0.152589679 39.5875664
-0.840952218 -0.152589679 40.0733032
-0.840952218 -0.152589679 40.5590401
-0.840952218 -0.152589679 41.0447769
-0.840952218 -0.152589679 41.5305138
-0.840952218 -0.152589679 42.0162506
-0.840952218 -0.152589679 42.5019875
-0.840952218 -0.152589679 42.9877281
-0.840952218 -0.152589679 43.473465
-0.840952218 -0.152589679 43.9592018
-0.840952218 -0.152589679 44.4449387
-0.840952218 -0.152589679 44.9306755
-0.840952218 -0.152589679 45.4164124
-0.840952218 -0.152589679 45.9021492
-0.840952218 -0.152589679 46.387886
-0.840952218 -0.152589679 46.8736229
-0.840952218 -0.152589679 47.3593597
-0.840952218 -0.152589679 47.8450966
-0.840952218 -0.152589679 48.3308334
-0.840952218 -0.152589679 48.8165703
-0.840952218 -0.152589679 49.3023109
-0.840952218 -0.152589679 49.7880478
-0.840952218 -0.152589679 50.2737846
-0.840952218 -0.152589679 50.7595215
-0.840952218 -0.152589679 51.2452583
-0.840952218 -0.152589679 51.7309952
-0.840952218 -0.152589679 52.216732
-0.840952218 -0.152589679 52.7024689
-0.840952218 -0.152589679 53.1882057
-0.840952218 -0.152589679 53.6739426
-0.840952218 -0.152589679 54.1596794
-0.840952218 -0.152589679 54.6454163
-0.840952218 -0.152589679 55.1311531
-0.840952218 -0.152589679 55.61689
-0.840952218 -0.152589679 56.1026306
-0.840952218 -0.152589679 56.5883675
-0.840952218 -0.152589679 57.0741043
-0.840952218 -0.152589679 57.5598412
-0.840952218 -0.152589679 58.045578
-0.840952218 -0.152589679 58.5313148
-0.840952218 -0.152589679 59.0170517
-0.840952218 -0.152589679 59.5027885
-0.840952218 -0.152589679 59.9885254
-0.840952218 -0.152589679 60.4742622
-1.26521635 0.0231462456 60.9599991
-1.4409523 0.447410315 60.9599991
-1.26521635 0.871674359 60.9599991
-0.840952218 1.04741037 60.4742622
-0.840952218 1.04741037 59.9885254
[...]
CELL_DATA 9425
SCALARS TALLY_TAG double 1
LOOKUP_TABLE default
0.009713388336 
0.009520929869 
0.008961375516 
0.01481442484 
0.01619358048 
0.01247734602 
0.01169413834 
0.01217852516 
0.01055745866 
0.01092664446 
0.01067278707 
0.006891247346 
0.01031913542 
0.008219207034 
0.004916961717 
0.008019276681 
0.005957025841 
0.00502092116 
0.005001865831 
0.01150906703 
0.008183902107 
0.01450209026 
0.009267561767 
0.01074937875 
0.008302457698 
0.009226610564 
0.009090094028 
0.01344840604 
0.01361517606 
0.00541527324 
0.01097147576 
0.01143722242 
0.01121487055 
0.00637781544 
0.0117184587 
0.01317855869 
0.007568994377 
0.008338159404 
0.01451353864 
0.009852225694 
0.008153818873 
0.01010768743 
0.01580057315 
0.006076428842 
0.006915488368 
0.007247149803 
0.008287156534 
0.01673339154 
0.005574521048 
0.009849221962 
0.0109730189 
0.007148223867 
0.007148858534 
0.01676296618 
0.01061796789 
0.00923234859 
0.01257612429 
0.01449883546 
0.01288327487 
0.008696092849 
0.007123794469 
0.009220240792 
0.01066923585 
0.004386919894 
0.006156891027 
0.006670271309 
0.009596345927 
0.01046024416 
0.007421960093 
0.01010353622 
0.01287373376 
0.01156721745 
0.006714875749 
0.006473316143 
0.01020161724 
0.006061838312 
0.007143737163 
0.004570516498 
0.00714963744 
0.01139339644 
0.009303611923 
0.01486277962 
0.01710285802 
0.01526329974 
0.01790708983 
0.009568401473 
0.0107263713 
0.007207032281 
0.007076710056 
0.008248018546 
0.01614600419 
0.005923565272 
0.007881005533 
0.009226768838 
0.01038949012 
0.004971468393 
0.01127634304 
0.009805532273 
0.01421707651 
0.009893008031 
0.012728581 
0.008223607851 
0.0132024549 
0.006374589073 
0.006592160926 
0.007938957065 
0.01069699193 
0.0119898103 
0.01427855723 
0.01393925224 
0.01073882633 
0.01349736422 
0.01381800085 
0.009046156858 
0.0118034456 
0.01682163472 
0.006517330169 
0.01217793872 
0.01385491295 
0.007090101668 
0.01054982683 
0.01074069519 
0.009601681252 
0.005932120154 
0.008566139907 
0.01076324311 
0.01094910296 
0.01185806481 
0.01281291003 
0.01802785579 
0.004355229251 
0.01193479632 
0.007308857375 
0.008148446438 
0.008547544246 
0.01827829206 
0.005916315337 
0.008229612256 
0.01155569501 
0.009944888491 
0.01333646322 
0.01105160892 
0.01449023525 
0.02022792905 
0.01255517094 
0.0155399681 
0.01774099293 
0.008536968136 
0.0164527543 
0.01182219331 
0.0133480811 
0.0050990139 
0.01102652329 
0.008122223206 
0.0100890056 
0.006391867632 
0.007840989603 
0.008453243722 
0.008941635968 
0.006862252072 
0.008512641821 
0.01179665991 
0.007568837139 
0.007706160607 
0.004347845214 
0.004909418621 
0.008691819246 
0.01961450754 
0.009326695127 
0.01243298276 
0.01176828481 
0.009139953313 
0.00703077478 
0.004270987318 
0.005320365492 
0.0040422545 
0.006657375277 
0.00941967576 
0.00641675303 
0.01430863137 
0.00811833203 
0.0046336207 
0.01259093417 
0.006904676684 
0.02078413152 
0.01106966884 
0.01489029044 
0.01141945752 
0.00847270528 
0.01542810064 
0.01462098654 
0.01579239061 
0.004605683602 
0.006484996148 
0.006791582368 
0.007202905355 
0.00391345972 
0.006286152438 
0.01000887483 
0.006373920692 
0.01547535764 
0.02019308568 
0.01118776317 
0.008184489937 
0.009526878495 
0.007981464551 
0.003650178946 
0.006354222074 
0.01061603871 
0.004281912721 
0.004008079079 
0.01047752275 
0.008503925355 
0.009725805542 
0.005854900697 
0.009106796462 
0.02235594763 
0.006153639701 
0.006789334302 
0.004383981329 
0.007954121549 
0.006581337694 
0.007275993287 
0.006710288354 
0.007234015037 
0.00584854069 
0.005291942297 
0.00716711687 
0.00575781539 
0.005098705683 
0.003369388338 
0.009810156733 
0.01421189962 
0.009434609752 
0.01274274572 
0.01237504073 
0.01238764903 
0.01099691862 
0.007880215892 
0.00908796506 
0.006776756284 
0.006915495068 
0.008730159405 
0.005391093171 
0.007084612752 
0.003807055245 
0.00778012552 
0.006542050674 
0.004684803954 
0.0119037941 
0.007392442434 
0.006823442323 
0.005559193667 
0.01791904445 
0.01621219127 
0.01139329014 
0.009366413675 
0.00640283517 
0.01115992001 
0.00637362441 
0.01241571681 
0.02251115406 
0.006668651301 
0.006831364876 
0.007741155608 
0.007839192809 
0.008086908122 
0.007102083366 
0.005165290744 
0.006587937572 
0.006071689163 
0.002836908472 
0.005809410263 
0.00487513685 
0.01174422241 
0.006699915176 
0.01176121394 
0.01115669425 
0.009622420344 
0.007078331686 
0.005461341987 
0.006561505456 
0.008728592659 
0.00920343983 
0.006471799066 
0.004502398878 
0.007654361169 
0.008300358246 
0.003739055709 
0.00850850425 
0.01264053511 
0.007186225561 
0.01197558931 
0.01131626433 
0.006655129006 
0.009774828475 
0.006001208081 
0.008689694903 
0.007966175435 
0.006586761109 
0.005411260199 
0.008868189623 
0.01089446231 
0.009510569595 
0.007555271113 
0.003792353175 
0.009052124942 
0.01170328539 
0.007959341587 
0.01096246464 
0.003119109786 
0.007140297081 
0.005049766839 
0.004388380646 
0.004706259113 
0.008442023561 
0.00789596902 
0.008483292177 
0.008437597461 
0.01649467776 
0.0119537361 
0.0106286585 
0.01712889517 
0.01954494669 
0.005372001431 
0.006646383311 
0.008253921654 
0.01015827607 
0.01159498437 
0.02183255008 
0.007047485666 
0.007711835045 
0.009064359749 
0.01019320093 
0.008974395287 
0.006926368359 
0.007930582187 
0.009580087352 
0.00764486844 
0.006299885409 
0.005595782963 
0.008079297567 
0.004852118426 
0.003949723386 
0.01184927627 
0.006575967271 
0.005403500788 
0.004847847298 
0.004282196032 
0.008233131401 
0.003089212392 
0.005371871191 
0.007496084772 
0.008083448658 
0.007746788546 
0.00666530674 
0.007516975809 
0.005425186928 
0.00666918165 
0.00603215889 
0.006432309518 
0.006132837673 
0.00645132296 
0.008219370958 
0.009227750436 
0.006145146314 
0.0116546772 
0.006914572988 
0.007382531293 
0.006669274383 
0.007176307545 
0.006555602466 
0.008418239752 
0.007818055905 
0.003812603756 
0.005807210118 
0.007407387895 
0.006895341582 
0.007021193384 
0.01743476556 
0.01485624589 
0.01014991659 
0.01594947159 
0.005261391622 
0.009803137779 
0.01193970102 
0.004556095094 
0.006719875334 
0.008461295215 
0.01235470658 
0.009276038116 
0.01431228862 
0.008974144155 
0.008706878273 
0.003756263304 
0.009408229956 
0.02047449462 
0.008058389837 
0.01445211608 
0.01110034846 
0.0160991245 
0.008267681054 
0.01404064476 
0.01230980766 
0.01162773401 
0.008707962469 
0.01117737104 
0.01420106098 
0.01060703761 
0.01102462535 
0.005402934085 
0.007097865696 
0.006953302141 
0.007744140735 
0.008175590065 
0.005264392659 
0.007868139447 
0.003539244366 
0.004116074603 
0.004657748736 
0.005515938567 
0.006769896442 
0.00722309188 
0.005572612172 
0.005925088791 
0.006700134182 
0.008393327106 
0.01529802717 
0.02044809285 
0.008823398301 
0.008866728511 
0.01088891146 
0.01227428678 
0.008680399658 
0.004502717687 
0.013030461 
0.00996357085 
0.004553528192 
0.01499561045 
0.011938588 
0.01548358956 
0.013588062 
0.0109845 
0.01407270416 
0.01177628417 
0.007048865726 
0.007880791937 
0.006734075465 
0.00642063797 
0.004134672925 
0.00485591492 
0.005528129174 
0.007026199319 
0.004732274911 
0.005329631314 
0.003576298689 
0.006875003382 
0.006251688431 
0.01256014407 
0.01049690273 
0.009367361113 
0.006276994028 
0.01003416602 
0.01138034967 
0.01620621406 
0.006222825896 
0.008295920366 
0.01166664607 
0.007253178366 
0.01064668274 
0.005337953251 
0.008877628933 
0.006830502768 
0.007234739548 
0.003311729928 
0.01322578491 
0.004589983307 
0.01150253486 
0.00625577592 
0.006185908803 
0.0113832517 
0.002784209589 
0.005886848536 
0.01271562131 
0.009371790182 
0.01367170444 
0.01235896905 
0.01219315471 
0.009333941691 
0.009171599162 
0.009500332574 
0.01375135784 
0.009291405012 
0.007451132268 
0.01157998184 
0.01719782991 
0.01011393064 
0.01250877353 
0.0108559345 
0.007857091395 
0.00581886075 
0.005616356397 
0.005347098405 
0.003946104528 
0.007259109202 
0.005332151372 
0.006100201806 
0.007804420069 
0.003542418348 
0.003428844604 
0.005003080297 
0.005014219802 
0.006307550693 
0.003254677697 
0.01080612326 
0.005571991227 
0.005465725396 
0.003754789148 
0.0140071885 
0.00729365371 
0.006991900258 
0.007525328833 
0.006596051889 
0.005076555422 
0.005527573543 
0.01028195139 
0.006239752389 
0.005548147438 
0.009092675185 
0.009307712123 
0.01105992044 
0.008265884745 
0.008048189697 
0.00960604978 
0.005642169739 
0.009922950018 
0.008219364412 
0.008130965453 
0.005793075377 
0.00514037641 
0.01120146683 
0.01376489877 
0.005124453371 
0.01053130489 
0.00691558746 
0.005452812427 
0.004670096532 
0.01108654608 
0.00454775927 
0.01862812234 
0.01152267195 
0.01302414574 
0.01706188006 
0.01516043554 
0.01447987308 
0.01454461805 
0.01015845095 
0.007612064509 
0.005463903894 
0.005611580934 
0.008695827697 
0.008731253945 
0.004103681004 
0.007597152446 
0.006236544892 
0.007989002287 
0.006131845582 
0.01010339597 
0.006887116072 
0.007435757309 
0.007452647699 
0.01175036672 
0.006200617423 
0.01184937315 
0.01569590054 
0.01356308849 
0.007301820717 
0.008872850877 
0.01476849864 
0.007258420016 
0.004874154177 
0.01522493258 
0.01321391772 
0.01856136297 
0.01207159304 
0.005951913566 
0.007227969371 
0.004031386492 
0.01052916961 
0.01285739917 
0.01085127052 
0.01031972687 
0.002044440875 
0.01161261214 
0.009681211259 
0.01235867509 
0.008798440514 
0.01326031845 
0.01252825365 
0.0127936993 
0.005489627592 
0.005468802007 
0.005729140354 
0.006076130628 
0.003860703117 
0.004547024736 
0.01122831679 
0.00731887633 
0.008341147394 
0.006502071553 
0.01535290713 
0.01038749644 
0.007438737739 
0.01510245292 
0.01708735916 
0.00845480001 
0.0152342068 
0.01099367292 
0.009644719938 
0.007820050694 
0.0144878404 
0.004273499277 
0.01075790924 
0.009980261772 
0.004309961265 
0.009638060911 
0.005236454016 
0.006011094532 
0.007758484772 
0.005238326819 
0.007768494494 
0.007771867845 
0.007544992093 
0.008953855967 
0.007536585204 
0.006304743923 
0.01015822839 
0.006776831109 
0.004193147018 
0.004298020941 
0.008593644014 
0.005766819147 
0.005825342732 
0.0060354407 
0.01267992204 
0.007107721315 
0.007934702542 
0.01469079166 
0.01039356477 
0.009989017504 
0.008383455581 
0.01003796742 
0.008378983444 
0.006054116229 
0.012354093 
0.01364458583 
0.01369105273 
0.007585200265 
0.01026512608 
0.007293641457 
0.01607257452 
0.02077222623 
0.006344698804 
0.01635989071 
0.003321869939 
0.005463523614 
0.007253509162 
0.004217537766 
0.01226207687 
0.00515754663 
0.01766478867 
0.005399322163 
0.01235365466 
0.007798818537 
0.005457974897 
0.01026863717 
0.01057964256 
0.006041649407 
0.004619025247 
0.01378991366 
0.008685817587 
0.007094332278 
0.00552365403 
0.005906506263 
0.004811629214 
0.009378925846 
0.009634491747 
0.004819363539 
0.003810796832 
0.003359349578 
0.01034037877 
0.01019281724 
0.008661746748 
0.00802599453 
0.007205295318 
0.0141028447 
0.010382301 
0.0132921155 
0.00657955392 
0.007079587819 
0.006240192373 
0.004068803052 
0.004888678638 
0.008006026882 
0.007414079333 
0.0115148232 
0.005346893929 
0.007831036986 
0.004273540425 
0.009723053007 
0.007653552962 
0.009528904775 
0.00667288954 
0.006993009592 
0.006610834724 
0.01888549375 
0.01052174937 
0.00531700424 
0.007138442003 
0.008499298807 
0.0083098527 
0.007802644414 
0.01073171172 
0.01031199142 
0.006237454619 
0.0065816666 
0.007154872463 
0.007992777356 
0.007211091361 
0.01090916036 
0.009128153928 
0.007465495227 
0.006733986943 
0.006917122257 
0.01127703482 
0.008035277886 
0.006091961536 
0.004411972794 
0.007863244978 
0.007478706948 
0.008302823016 
0.006287920698 
0.009273889027 
0.00827977204 
0.007632525788 
0.008842177227 
0.009230010483 
0.008650004312 
0.008681947761 
0.01502358598 
0.00501931449 
0.004631862149 
0.00844748275 
0.003682884865 
0.005240779259 
0.006734557468 
0.007581663617 
0.006836881376 
0.009392777905 
0.009976978239 
0.007401686247 
0.009949304308 
0.01122192564 
0.005047654943 
0.005733931498 
0.006104995346 
0.005242459371 
0.005803729372 
0.007746899783 
0.0121066027 
0.006278391758 
0.007282063275 
0.01125591263 
0.007714537643 
0.008474161855 
0.007292292627 
0.003745146657 
0.007389408746 
0.010188964 
0.0143691428 
0.006277163528 
0.006449414726 
0.01142839871 
0.00925720098 
0.004894404484 
0.009652640676 
0.01529872242 
0.004166455858 
0.003239931089 
0.006449645109 
0.005999220575 
0.0067161197 
0.01963538803 
0.01019394763 
0.00623352273 
0.0077029202 
0.008667830887 
0.007434457596 
0.00652723624 
0.01027465044 
0.00750012077 
0.01008011743 
0.01148751272 
0.006354045613 
0.01065329333 
0.01862150679 
0.01091925336 
0.01109298525 
0.009736811675 
0.009692205292 
0.01084475627 
0.01199890151 
0.01228323607 
0.01467068472 
0.01504080575 
0.007816508208 
0.006083002445 
0.01002234222 
0.005745839107 
0.005942415574 
0.005332875949 
0.005464461496 
0.01048787952 
0.008074899814 
0.00350020328 
0.008593221589 
0.005616645464 
0.01109549651 
0.005705573663 
0.008831299901 
0.004334438285 
0.01081729277 
0.007231942631 
0.007271234861 
0.0124076988 
0.01403510921 
0.007862397199 
0.01140275661 
0.008137222923 
0.007967631551 
0.01017238356 
0.01099951712 
0.008312942619 
0.008718490445 
0.006125201681 
0.009109132017 
0.01165194499 
0.009849645476 
0.007718853616 
0.007031306108 
0.008003991862 
0.01560498577 
0.01670611205 
0.01594601588 
0.01684053649 
0.006203395645 
0.007020748458 
0.006047961824 
0.005635752589 
0.01043442858 
0.005673831065 
0.004637207142 
0.006337961828 
0.007833292293 
0.005154529515 
0.007391409385 
0.003987231786 
0.00578287567 
0.007673113638 
0.008100961691 
0.01144664643 
0.008753599978 
0.008837406963 
0.005725342784 
0.008105798511 
0.01187014678 
0.008870545599 
0.007480501342 
0.00822037519 
0.009752497749 
0.007207654859 
0.007779362081 
0.006028724926 
0.007853418588 
0.01021999412 
0.007531798041 
0.007870908147 
0.01223984964 
0.01035158595 
0.01044743474 
0.009395322413 
0.007382854737 
0.01293669198 
0.009512245292 
0.01225140144 
0.006285514762 
0.00504209729 
0.00784530432 
0.00653887459 
0.008810630399 
0.01193514832 
0.009032051057 
0.009527672449 
0.006029720635 
0.008254240913 
0.006013514149 
0.01040464491 
0.009502355874 
0.004364305538 
0.006538254186 
0.007615681278 
0.005504810633 
0.00674581808 
0.007323099403 
0.01236719628 
0.01125165156 
0.008290621011 
0.007891895147 
0.006872594842 
0.00772861668 
0.006268011218 
0.004359751706 
0.006258917997 
0.007201397938 
0.007071846667 
0.005411635483 
0.009149305792 
0.006747625339 
0.00400660172 
0.01030361005 
0.008996096269 
0.004777357923 
0.005489615127 
0.004719696366 
0.008905397544 
0.0121361135 
0.01256804056 
0.006536484491 
0.005673665605 
0.005687250778 
0.008757964125 
0.009305985335 
0.005556732919 
0.01035155776 
0.01417932951 
0.01530758279 
0.01540192034 
0.01183484687 
0.009353246381 
0.01170947639 
0.01082169559 
0.009096103878 
0.01337209819 
0.01193680672 
0.006925441923 
0.008107700977 
0.01221311301 
0.005756987671 
0.006572496899 
0.01498903155 
0.0122145229 
0.008987822723 
0.01263340931 
0.006515131456 
0.005493412267 
0.008268992589 
0.01245225652 
0.005988624152 
0.006424255732 
0.01257326269 
0.01376575887 
0.007821253999 
0.009761642969 
0.006150664725 
0.002784987569 
0.006314783297 
0.008390298154 
0.004785525547 
0.01598419066 
0.0113977118 
0.01121844915 
0.009389907581 
0.004887667001 
0.00523591175 
0.005979759249 
0.005892106825 
0.008567103893 
0.005233834231 
0.01099014413 
0.007188980648 
0.005059706293 
0.00669878816 
0.008959893063 
0.007264672178 
0.007928125076 
0.0105059592 
0.006952384412 
0.006382941144 
0.005102180047 
0.006341335824 
0.01357574959 
0.00673142867 
0.006977808017 
0.01565008025 
0.01547164891 
0.01456291362 
0.01062397751 
0.007367324351 
0.01350556746 
0.008053547563 
0.009795445628 
0.01299927743 
0.01677820281 
0.01479695566 
0.01456118306 
0.01133410489 
0.01419973444 
0.005807028472 
0.006073127277 
0.008260042746 
0.00839899001 
0.00790928209 
0.01117630031 
0.01136716896 
0.01267837489 
0.006926025614 
0.01402196929 
0.01102100111 
0.005534048128 
0.008574309701 
0.005104347835 
0.008387428585 
0.01296850869 
0.007239286267 
0.01142093101 
0.009733495122 
0.005684054487 
0.005128120105 
0.007964470981 
0.007329184721 
0.009826273569 
0.009093408836 
0.007939597605 
0.004046974137 
0.006474132544 
0.006545443506 
0.006767461726 
0.01045311169 
0.007548991128 
0.002303228239 
0.01191733736 
0.004612709666 
0.005546890509 
0.005702406024 
0.007575876658 
0.008007043551 
0.01268325359 
0.01005771086 
0.00684817917 
0.009895505468 
0.008439649202 
0.006693546481 
0.008395779578 
0.01203009562 
0.01507096133 
0.006508374546 
0.008285527079 
0.005933162674 
0.01589641708 
0.0167788813 
0.006620570052 
0.00928416966 
0.008595817922 
0.008600845193 
0.009233816715 
0.007841435244 
0.01611243654 
0.01064846774 
0.01089939749 
0.01054023441 
0.006018242493 
0.003983134053 
0.006639723883 
0.01313192009 
0.008258986278 
0.007259582722 
0.01274949268 
0.004627003228 
0.005029052097 
0.004492284066 
0.00732676511 
0.004678970345 
0.006078025113 
0.006298177096 
0.009403646322 
0.009644021888 
0.003840612876 
0.006903229101 
0.008193248827 
0.00846790767 
0.009372817688 
0.02247203714 
0.01491737495 
0.005596882956 
0.01649659029 
0.0118472242 
0.01406048731 
0.01256500799 
0.006776122736 
0.008929391333 
0.002650099831 
0.01148424811 
0.004587609113 
0.006829572884 
0.009396085737 
0.004603565155 
0.005697266082 
0.005469352337 
0.004857956967 
0.006641837039 
0.004477093226 
0.006475911108 
0.006543199787 
0.007933777697 
0.009833005568 
0.01189330294 
0.01009325211 
0.01277586736 
0.008942234481 
0.005637364857 
0.005110184956 
0.004573610354 
0.006391949175 
0.007219647506 
0.006496640989 
0.007306703699 
0.00810061855 
0.007242205035 
0.007419702421 
0.0114613142 
0.01551318332 
0.01423386713 
0.007357366647 
0.004925769854 
0.007700617639 
0.00855625262 
0.004888618229 
0.005950571973 
0.0108442682 
0.01106497895 
0.007762198137 
0.009721603651 
0.003901036554 
0.009855715635 
0.01098496855 
0.01312809339 
0.004702290064 
0.00702842366 
0.006579999586 
0.009026410198 
0.007036703084 
0.006072541871 
0.008742236785 
0.006233997497 
0.008697045454 
0.005067392344 
0.01053414441 
0.009754115252 
0.008984608244 
0.009782639995 
0.01119645023 
0.007632971995 
0.009441385578 
0.006789491155 
0.005904074605 
0.01495237102 
0.0116684098 
0.004876545758 
0.01105898436 
0.008062812812 
0.007457013814 
0.008743198059 
0.004207744735 
0.005186371084 
0.01137850909 
0.01006057373 
0.00712414552 
0.009191790479 
0.01074890307 
0.00710603927 
0.008273543299 
0.005716756255 
0.006840204264 
0.007084421936 
0.005884517547 
0.005077097276 
0.004814049845 
0.003160273672 
0.005988437246 
0.007424476427 
0.008418772482 
0.006507833059 
0.0111055086 
0.01208797512 
0.01444884853 
0.01347909105 
0.0104927375 
0.01086002737 
0.01460057183 
0.012211217 
0.00594589043 
0.0043912693 
0.008768259774 
0.01101759162 
0.01109221172 
0.01305993229 
0.00519305789 
0.007348925071 
0.01261630737 
0.009027815247 
0.01572205632 
0.007618684672 
0.008708490511 
0.01871425372 
0.01254857512 
0.00405905772 
0.01028487091 
0.009299701451 
0.01214046594 
0.007833570806 
0.009014335691 
0.00780621606 
0.005804207685 
0.007094371366 
0.004568977709 
0.008309637769 
0.01612289799 
0.01132716411 
0.005792550031 
0.01030546285 
0.008672487452 
0.007087295795 
0.007353809879 
0.005748098219 
0.006317834953 
0.01345970724 
0.008685421672 
0.008200862853 
0.01428580615 
0.01091015188 
0.004596916109 
0.01088829801 
0.006117011584 
0.004163258743 
0.01070184545 
0.009011511441 
0.008983822173 
0.016693923 
0.005931484252 
0.008980363076 
0.01167267268 
0.01322426415 
0.008984833064 
0.01042388842 
0.01114338703 
0.008823134184 
0.005386650081 
0.007770215553 
0.005954174782 
0.01103735194 
0.01044900496 
0.009166165032 
0.006454216861 
0.01068409533 
0.008426809484 
0.008772683903 
0.006469768026 
0.006332252189 
0.005552465945 
0.0109751261 
0.009275539279 
0.01312211444 