# vtk DataFile Version 3.0
MOAB 4.99 (Alpha)
ASCII
DATASET UNSTRUCTURED_GRID
POINTS 652 double
0 -1 1
0 1 1
0 -0.6 1
0 -0.2 1
0 0.2 1
0 0.6 1
0 1 -1
0 1 0.6
0 1 0.2
0 1 -0.2
0 1 -0.6
0 -1 -1
0 0.6 -1
0 0.2 -1
0 -0.2 -1
0 -0.6 -1
0 -1 -0.6
0 -1 -0.2
0 -1 0.2
0 -1 0.6
0 -0.4052531952 0.6719438381
0 0.001326739737 0.6398182875
0 0.4084466782 0.6730790076
0 0.671668119 0.4109975243
0 0.6409559612 0.002665308352
0 0.6741562537 -0.4067531861
0 0.4126332896 -0.6703225438
0 0.005823851008 -0.6385848783
0 -0.4033337139 -0.671818987
0 -0.6657077798 -0.40925766
0 -0.6331965555 -5.201324309e-05
0 -0.6677757402 0.4090861353
0 -0.7346057871 0.7362059947
0 0.7360229594 0.7368153064
0 0.7373579087 -0.735415146
0 -0.7338082987 -0.7362153294
0 -0.2405618544 0.2463031768
0 0.2488935914 0.2473010883
0 0.2507661259 -0.2443109294
0 -0.2398134703 -0.2452073142
0 0.004821098151 0.001021505389
5 1 1
0.3571428571 1 1
0.7142857143 1 1
1.071428571 1 1
1.428571429 1 1
1.785714286 1 1
2.142857143 1 1
2.5 1 1
2.857142857 1 1
3.214285714 1 1
3.571428571 1 1
3.928571429 1 1
4.285714286 1 1
4.642857143 1 1
5 -1 1
4.642857143 -1 1
4.285714286 -1 1
3.928571429 -1 1
3.571428571 -1 1
3.214285714 -1 1
2.857142857 -1 1
2.5 -1 1
2.142857143 -1 1
1.785714286 -1 1
1.428571429 -1 1
1.071428571 -1 1
0.7142857143 -1 1
0.3571428571 -1 1
5 -0.6 1
5 -0.2 1
5 0.2 1
5 0.6 1
0.482744013 0.6418925102 1
0.8741106426 0.6492818318 1
1.247687448 0.6682682024 1
1.609492627 0.676950116 1
1.968048943 0.6807316378 1
2.325507589 0.6823892284 1
2.682592234 0.6830063579 1
3.039645566 0.683116297 1
3.396880318 0.6830078267 1
3.754585608 0.6817569949 1
4.114658667 0.6759750758 1
4.496431974 0.6565966744 1
0.2921116603 -0.3326338679 1
0.3175477822 0.00481513306 1
0.2921870446 0.3397804688 1
4.521742213 -0.64613146 1
4.134017464 -0.6471637972 1
3.759889908 -0.655293672 1
3.396908665 -0.658880471 1
3.037969715 -0.660196626 1
2.680446604 -0.6606980858 1
2.323364081 -0.6611285356 1
1.966234542 -0.6619949497 1
1.607920889 -0.6610432776 1
1.246464651 -0.6545253818 1
0.873931116 -0.6383122315 1
0.4830655076 -0.6343465191 1
4.714012024 -0.3514748397 1
4.690456926 -0.03901827909 1
4.649145283 0.3084574333 1
0.6628677792 0.2488907225 1
1.070196338 0.3240190659 1
1.432239005 0.3435413991 1
1.790777117 0.3505561614 1
2.148492937 0.3537671526 1
2.505688787 0.355276405 1
2.862779222 0.3558839174 1
3.220253744 0.356192309 1
3.577948983 0.3560454127 1
3.935509915 0.3562385195 1
4.28907868 0.3528178115 1
0.6630520447 -0.2347176539 1
4.364162751 -0.2670538295 1
3.952788236 -0.3024282251 1
3.581599815 -0.3132198253 1
3.220122052 -0.3164761731 1
2.861682438 -0.3176398075 1
2.504349861 -0.318419623 1
2.147187136 -0.3197095355 1
1.789279015 -0.3204263535 1
1.430865141 -0.3176402594 1
1.069650922 -0.3028775147 1
0.9451495039 0.01015558316 1
1.260236406 0.01263206525 1
1.61237784 0.01504774283 1
1.969360709 0.01716947347 1
2.326675216 0.01880874609 1
2.683896221 0.01986298316 1
3.041571523 0.02066208959 1
3.400242546 0.02189764603 1
3.761069126 0.026584299 1
4.120501615 0.04080424586 1
4.422669051 0.07920147641 1
3 -1 -1
0.375 -1 -1
0.75 -1 -1
1.125 -1 -1
1.5 -1 -1
1.875 -1 -1
2.25 -1 -1
2.625 -1 -1
3.25 -1 -0.75
3.5 -1 -0.5
3.75 -1 -0.25
4 -1 4.440892099e-16
4.25 -1 0.25
4.5 -1 0.5
4.75 -1 0.75
2.877866561 -1 -0.6755529305
4.466645995 -1 0.7799718639
4.15280434 -1 0.6500891687
3.744849511 -1 0.6781640208
3.384444189 -1 0.6885527835
3.031687596 -1 0.6860143389
2.676058569 -1 0.6836451497
2.319425934 -1 0.6842127889
1.963134806 -1 0.6842452442
1.606093592 -1 0.6835537029
1.244846648 -1 0.6822157568
0.8748113689 -1 0.6781491946
0.488578244 -1 0.6668446301
0.3170049312 -1 -0.4252814992
0.4077285388 -1 -0.003466741127
0.3131685698 -1 0.3634517965
0.5501362842 -1 -0.6938504823
0.9155519405 -1 -0.6680337392
1.291756847 -1 -0.6599682995
1.666638369 -1 -0.6541282701
2.045168313 -1 -0.63918873
2.464716759 -1 -0.5887644472
3.147253932 -1 -0.3957412245
3.415979672 -1 -0.1524561669
3.662508158 -1 0.07786500732
3.891906658 -1 0.340410147
0.2484282431 -1 -0.7438263963
3.544099378 -1 0.3844311793
3.208609393 -1 0.3788439097
2.856672571 -1 0.3611676186
2.497685532 -1 0.3652367986
2.145431733 -1 0.3652176412
1.790870835 -1 0.3613904119
1.428868554 -1 0.3577146123
1.055032367 -1 0.352293812
0.666611754 -1 0.3454775693
0.6886102072 -1 -0.3487419104
1.07774774 -1 -0.3247265714
1.456056321 -1 -0.3143817712
1.826341752 -1 -0.3028155093
2.187980354 -1 -0.2761973221
2.783962278 -1 -0.304309983
3.065065827 -1 0.01015688884
3.379252486 -1 0.1397681636
2.669063183 -1 0.04436782775
2.327723373 -1 0.05337338446
1.983419821 -1 0.03871966558
1.622889569 -1 0.02780615007
1.250157664 -1 0.0190498259
0.8576480453 -1 0.006647664037
2.486689189 -1 -0.214306108
3 1 -1
2.625 1 -1
2.25 1 -1
1.875 1 -1
1.5 1 -1
1.125 1 -1
0.75 1 -1
0.375 1 -1
3 0.6 -1
3 0.2 -1
3 -0.2 -1
3 -0.6 -1
0.5051722492 -0.6423612468 -1
0.9126445746 -0.6436367449 -1
1.305865967 -0.6580484746 -1
1.688419081 -0.6656634151 -1
2.070560737 -0.6699173913 -1
2.47095257 -0.654958819 -1
0.3045321161 0.3321450215 -1
0.3297045651 -0.003954053695 -1
0.3031518466 -0.3391619139 -1
2.496518416 0.6444993806 -1
2.089437641 0.6484888302 -1
1.696472775 0.6606559536 -1
1.310410893 0.6601586509 -1
0.9145626663 0.6430290874 -1
0.5048111999 0.6367418762 -1
2.698685229 0.3478643401 -1
2.673925788 0.03759912285 -1
2.630822662 -0.307407269 -1
0.6891800874 -0.2413179328 -1
1.117995254 -0.31081986 -1
1.501602224 -0.3288992524 -1
1.879773297 -0.3413765722 -1
2.251995373 -0.347453633 -1
0.6906986346 0.241721174 -1
2.330694409 0.2691157534 -1
1.898453339 0.3123467399 -1
1.50523074 0.3255357202 -1
1.119997336 0.3128153358 -1
0.9871659053 0.001021893381 -1
1.32151729 -0.0007785871564 -1
1.696158716 -0.0108146455 -1
2.074427116 -0.0329213637 -1
2.39237307 -0.07621347787 -1
4.75 1 0.75
4.5 1 0.5
4.25 1 0.25
4 1 4.440892099e-16
3.75 1 -0.25
3.5 1 -0.5
3.25 1 -0.75
2.867030953 1 -0.6988650116
2.474156348 1 -0.6753229026
2.081373182 1 -0.6694615696
1.695617643 1 -0.6705909607
1.318141903 1 -0.6727467173
0.9467425247 1 -0.6787770531
0.579301257 1 -0.692131811
0.2966572502 1 0.3479323442
0.3241496123 1 0.02376682941
0.3643749589 1 -0.3806445717
0.485716375 1 0.6443037771
0.8800449263 1 0.6479805007
1.258999023 1 0.6599585407
1.627576335 1 0.6665410642
1.992246343 1 0.675675885
2.342665234 1 0.6931979882
2.681091077 1 0.6959396101
3.027627048 1 0.687960259
3.382579572 1 0.6864233704
3.744321748 1 0.676246905
4.152084187 1 0.6497025488
4.466131123 1 0.7799405098
3.890813684 1 0.3384736659
3.659004062 1 0.07254382364
3.405194921 1 -0.1603653669
3.128426869 1 -0.4097638991
0.2637352432 1 -0.7345552765
2.720338544 1 -0.3408740157
2.295598811 1 -0.322994355
1.889368806 1 -0.3319666464
1.503718198 1 -0.3398258772
1.12851383 1 -0.351934221
0.7604094643 1 -0.3734137491
0.6595163808 1 0.2627546758
1.082906048 1 0.3076146985
1.465840553 1 0.3258328481
1.843290824 1 0.3407665621
2.217501637 1 0.3707181543
2.520422244 1 0.4397403716
2.830048503 1 0.3778663286
3.195516991 1 0.3770857233
3.539696214 1 0.3801662191
3.365161368 1 0.1338919498
3.024667224 1 0.006768532576
2.526500835 1 0.07813469086
2.075540656 1 0.0220886965
1.680219242 1 0.0005716096516
1.298625226 1 -0.01625876604
0.923823613 1 -0.04473675753
0.6064548059 1 -0.1024547146
3.210534347 0.3456156476 -0.7894656535
3.237579789 0.02323972097 -0.7624202105
3.260077995 -0.3369398435 -0.7399220054
4.66128468 0.6420733885 0.6612846795
4.387425658 0.6478035315 0.3874256579
4.127422783 0.6605799727 0.1274227835
3.874334095 0.6591986653 -0.1256659048
3.615032709 0.6473723453 -0.3849672912
3.34148886 0.6428667433 -0.6585111399
4.794943029 -0.3328127876 0.7949430294
4.776893838 0.004760438475 0.776893838
4.79476624 0.3398623493 0.7947662396
3.352897705 -0.6767119424 -0.6471022951
3.612851485 -0.685585578 -0.3871485146
3.86653946 -0.6683737223 -0.1334605404
4.125233072 -0.6591947061 0.1252330723
4.387426995 -0.6404608724 0.3874269946
4.661396082 -0.634846041 0.6613960816
3.470461255 0.2667555942 -0.5295387448
3.471725451 -0.1303904056 -0.5282745489
4.53529653 0.2465105609 0.5352965303
4.251750301 0.3149278043 0.2517503015
3.999672335 0.3263318987 -0.0003276647424
3.748686449 0.3210592429 -0.2513135508
4.535235548 -0.2376028235 0.535235548
3.482398389 -0.4309857217 -0.5176016111
3.708720333 -0.317234075 -0.2912796668
3.990796674 -0.3252886488 -0.009203326325
4.249586538 -0.3093708721 0.2495865382
3.654619287 0.02856387022 -0.3453807126
4.338265664 0.003206383659 0.3382656643
4.11726241 0.002072593402 0.1172624102
3.869959581 0.005917480259 -0.1300404185
1.254151225 0.004938210826 0.2268580347
1.258093715 0.4185037315 0.2180146426
1.585455537 0.24798657 0.4220694005
1.425955296 0.2222011536 -0.0003622576769
1.289391756 0.004154899623 -0.2217102349
1.406356692 0.2215114087 -0.444965601
1.614735484 -0.0234266296 -0.2193821222
1.594019175 -0.02205472812 0.2286124229
1.761645436 0.2092958093 0.07703255117
1.186550021 0.4443460405 -0.2271352559
1.290576458 0.6678672433 -0.01039546821
1.656060696 0.4720394611 0.2017775327
2.946068764 0.2709674835 0.1041740552
3.014223814 0.00540857669 -0.04753035679
2.893977165 0.179529354 -0.2602925897
3.315015316 0.2079574168 -0.217238605
3.184316158 0.07663551718 0.3980130851
3.277302504 0.4510525465 0.135126546
2.988688707 0.459254235 0.4394773841
0.294485718 -0.7756041288 -0.6830466986
0.4735782146 -0.7443722486 -0.3311778009
0.7359229326 -0.5096852183 -0.6587554812
2.920715094 0.03859656677 0.301337719
0.7182064652 0.003259686986 -0.4648275077
0.999706924 0.0616495572 -0.344335407
0.9743324518 -0.005160749424 -0.6427494287
0.8603745699 0.2504629493 -0.4456205964
0.7148886323 0.007733854 -0.1816662252
0.4794034064 0.1719390005 -0.2227733135
0.452232182 -0.2293792963 -0.2214475572
0.8579045534 -0.2245757431 -0.4406814277
0.3488702178 -0.1547007859 -0.51195544
1.776361823 -0.2543159723 -0.7265589833
1.733326793 0.02463478781 -0.6439775229
1.895905614 -0.143343091 -0.3649022281
0.2467416823 -0.6085521579 0.5640035868
[...]
CELL_DATA 4460
SCALARS TALLY_TAG double 1
LOOKUP_TABLE default
0 
0 
0 
0 
0 
0 
0 
0 
0 
0 
0 
0 
0 
0 
0 
0 
0 
0 
0 
0 
0 
0 
0 
0 
0 
0 
0 
0 
0 
0 
0 
0 
0 
0 
0 
0 
0 
0 
0 
0 
0 
0 
0 
0 
0 
0 
0 
0 
0 
0 
0 
0 
0 
0 
0 
0 
0 
0 
0 
0 
0 
0 
0 
0 
0 
0 
0 
0 
0 
0 
0 
0 
0 
0 
0 
0 
0 
0 
0 
0 
0 
0 
0 
0 
0 
0 
0 
0 
0 
0 
0 
0 
0 
0 
0 
0 
0 
0 
0 
0 
0 
0 
0 
0 
0 
0 
0 
0 
0 
0 
0 
0 
0 
0 
0 
0 
0 
0 
0 
0 
0 
0 
0 
0 
0 
0 
0 
0 
0 
0 
0 
0 
0 
0 
0 
0 
0 
0 
0 
0 
0 
0 
0 
0 
0 
0 
0 
0 
0 
0 
0 
0 
0 
0 
0 
0 
0 
0 
0 
0 
0 
0 
0 
0 
0 
0 
0 
0 
0 
0 
0 
0 
0 
0 
0 
0 
0 
0 
0 
0 
0 
0 
0 
0 
0 
0 
0 
0 
0 
0 
0 
0 
0 
0 
0 
0 
0 
0 
0 
0 
0 
0 
0 
0 
0 
0 
0 
0 
0 
0 
0 
0 
0 
0 
0 
0 
0 
0 
0 
0 
0 
0 
0 
0 
0 
0 
0 
0 
0 
0 
0 
0 
0 
0 
0 
0 
0 
0 
0 
0 
0 
0 
0 
0 
0 
0 
0 
0 
0 
0 
0 
0 
0 
0 
0 
0 
0 
0 
0 
0 
0 
0 
0 
0 
0 
0 
0 
0 
0 
0 
0 
0 
0 
0 
0 
0 
0 
0 
0 
0 
0 
0 
0 
0 
0 
0 
0 
0 
0 
0 
0 
0 
0 
0 
0 
0 
0 
0 
0 
0 
0 
0 
0 
0 
0 
0 
0 
0 
0 
0 
0 
0 
0 
0 
0 
0 
0 
0 
0 
0 
0 
0 
0 
0 
0 
0 
0 
0 
0 
0 
0 
0 
0 
0 
0 
0 
0 
0 
0 
0 
0 
0 
0 
0 
0 
0 
0 
0 
0 
0 
0 
0 
0 
0 
0 
0 
0 
0 
0 
0 
0 
0 
0 
0 
0 
0 
0 
0 
0 
0 
0 
0 
0 
0 
0 
0 
0 
0 
0 
0 
0 
0 
0 
0 
0 
0 
0 
0 
0 
0 
0 
0 
0 
0 
0 
0 
0 
0 
0 
0 
0 
0 
0 
0 
0 
0 
0 
0 
0 
0 
0 
0 
0 
0 
0 
0 
0 
0 
0 
0 
0 
0 
0 
0 
0 
0 
0 
0 
0 
0 
0 
0 
0 
0 
0 
0 
0 
0 
0 
0 
0 
0 
0 
0 
0 
0 
0 
0 
0 
0 
0 
0 
0 
0 
0 
0 
0 
0 
0 
0 
0 
0 
0 
0 
0 
0 
0 
0 
0 
0 
0 
0 
0 
0 
0 
0 
0 
0 
0 
0 
0 
0 
0 
0 
0 
0 
0 
0 
0 
0 
0 
0 
0 
0 
0 
0 
0 
0 
0 
0 
0 
0 
0 
0 
0 
0 
0 
0 
0 
0 
0 
0 
0 
0 
0 
0 
0 
0 
0 
0 
0 
0 
0 
0 
0 
0 
0 
0 
0 
0 
0 
0 
0 
0 
0 
0 
0 
0 
0 
0 
0 
0 
0 
0 
0 
0 
0 
0 
0 
0 
0 
0 
0 
0 
0 
0 
0 
0 
0 
0 
0 
0 
0 
0 
0 
0 
0 
0 
0 
0 
0 
0 
0 
0 
0 
0 
0 
0 
0 
0 
0 
0 
0 
0 
0 
0 
0 
0 
0 
0 
0 
0 
0 
0 
0 
0 
0 
0 
0 
0 
0 
0 
0 
0 
0 
0 
0 
0 
0 
0 
0 
0 
0 
0 
0 
0 
0 
0 
0 
0 
0 
0 
0 
0 
0 
0 
0 
0 
0 
0 
0 
0 
0 
0 
0 
0 
0 
0 
0 
0 
0 
0 
0 
0 
0 
0 
0 
0 
0 
0 
0 
0 
0 
0 
0 
0 
0 
0 
0 
0 
0 
0 
0 
0 
0 
0 
0 
0 
0 
0 
0 
0 
0 
0 
0 
0 
0 
0 
0 
0 
0 
0 
0 
0 
0 
0 
0 
0 
0 
0 
0 
0 
0 
0 
0 
0 
0 
0 
0 
0 
0 
0 
0 
0 
0 
0 
0 
0 
0 
0 
0 
0 
0 
0 
0 
0 
0 
0 
0 
0 
0 
0 
0 
0 
0 
0 
0 
0 
0 
0 
0 
0 
0 
0 
0 
0 
0 
0 
0 
0 
0 
0 
0 
0 
0 
0 
0 
0 
0 
0 
0 
0 
0 
0 
0 
0 
0 
0 
0 
0 
0 
0 
0 
0 
0 
0 
0 
0 
0 
0 
0 
0 
0 
0 
0 
0 
0 
0 
0 
0 
0 
0 
0 
0 
0 
0 
0 
0 
0 
0 
0 
0 
0 
0 
0 
0 
0 
0 
0 
0 
0 
0 
0 
0 
0 
0 
0 
0 
0 
0 
0 
0 
0 
0 
0 
0 
0 
0 
0 
0 
0 
0 
0 
0 
0 
0 
0 
0 
0 
0 
0 
0 
0 
0 
0 
0 
0 
0 
0 
0 
0 
0 
0 
0 
0 
0 
0 
0 
0 
0 
0 
0 
0 
0 
0 
0 
0 
0 
0 
0 
0 
0 
0 
0 
0 
0 
0 
0 
0 
0 
0 
0 
0 
0 
0 
0 
0 
0 
0 
0 
0 
0 
0 
0 
0 
0 
0 
0 
0 
0 
0 
0 
0 
0 
0 
0 
0 
0 
0 
0 
0 
0 
0 
0 
0 
0 
0 
0 
0 
0 
0 
0 
0 
0 
0 
0 
0 
0 
0 
0 
0 
0 
0 
0 
0 
0 
0 
0 
0 
0 
0 
0 
0 
0 
0 
0 
0 
0 
0 
0 
0 
0 
0 
0 
0 
0 
0 
0 
0 
0 
0 
0 
0 
0 
0 
0 
0 
0 
0 
0 
0 
0 
0 
0 
0 
0 
0 
0 
0 
0 
0 
0 
0 
0 
0 
0 
0 
0 
0 
0 
0 
0 
0 
0 
0 
0 
0 
0 
0 
0 
0 
0 
0 
0 
0 
0 
0 
0 
0 
0 
0 
0 
0 
0 
0 
0 
0 
0 
0 
0 
0 
0 
0 
0 
0 
0 
0 
0 
0 
0 
0 
0 
0 
0 
0 
0 
0 
0 
0 
0 
0 
0 
0 
0 
0 
0 
0 
0 
0 
0 
0 
0 
0 
0 
0 
0 
0 
0 
0 
0 
0 
0 
0 
0 
0 
0 
0 
0 
0 
0 
0 
0 
0 
0 
0 
0 
0 
0 
0 
0 
0 
0 
0 
0 
0 
0 
0 
0 
0 
0 
0 
0 
0 
0 
0 
0 
0 
0 
0 
0 
0 
0 
0 
0 
0 
0 
0 
0 
0 
0 
0 
0 
0 
0 
0 
0 
0 
0 
0 
0 
0 
0 
0 
0 
0 
0 
0 
0 
0 
0 
0 
0 
0 
0 
0 
0 
0 
0 
0 
0 
0 
0 
0 
0 
0 
0 
0 
0 
0 
0 
0 
0 
0 
0 
0 
0 
0 
0 
0 
0 
0 
0 
0 
0 
0 
0 
0 
0 
0 
0 
0 
0 
0 
0 
0 
0 
0 
0 
0 
0 
0 
0 
0 
0 
0 
0 
0 
0 
0 
0 
0 
0 
0 
0 
0 
0 
0 
0 
0 
0 
0 
0 
0 
0 
0 
0 
0 
0 
0 
0 
0 
0 
0 
0 
0 
0 
0 
0 
0 
0 
0 
0 
0 
0 
0 
0 
0 
0 
0 
0 
0 
0 
0 
0 
0 
0 
0 
0 
0 
0 
0 
0 
0 
0 
0 
0 
0 
0 
0 
0 
0 
0 
0 
0 
0 
0 
0 
0 
0 
0 
0 
0 
0 
0 
0 
0 
0 
0 
0 
0 
0 
0 
0 
0 
0 
0 
0 
0 
0 
0 
0 
0 
0 
0 
0 
0 
0 
0 
0 
0 
0 
0 
0 
0 
0 
0 
0 
0 
0 
0 
0 
0 
0 
0 
0 
0 
0 
0 
0 
0 
0 
0 
0 
0 
0 
0 
0 
0 
0 
0 
0 
0 
0 
0 
0 
0 
0 
0 
0 
0 
0 
0 
0 
0 
0 
0 
0 
0 
0 
0 
0 
0 
0 
0 
0 
0 
0 
0 
0 
0 
0 
0 
0 
0 
0 
0 
0 
0 
0 
0 
0 
0 
0 
0 
0 
0 
0 
0 
0 
0 
0 
0 
0 
0 
0 
0 
0 
0 
0 
0 
0 
0 
0 
0 
0 
0 
0 
0 
0 
0 
0 
0 
0 
0 
0 
0 
0 
0 
0 
0 
0 
0 
0 
0 
0 
0 
0 
0 
0 
0 
0 
0 
0 
0 
0 
0 
0 
0 
0 
0 
0 
0 
0 
0 
0 
0 
0 
0 
0 
0 
0 
0 
0 
0 
0 
0 
0 
0 
0 
0 
0 
0 
0 
0 
0 
0 
0 
0 
0 
0 
0 
0 
0 
0 
0 
0 
0 
0 
0 
0 
0 
0 
0 
0 
0 
0 
0 
0 
0 
0 
0 
0 
0 
0 
0 
0 
0 
0 
0 
0 
0 
0 
0 
0 
0 
0 
0 
0 
0 
0 
0 
0 
0 
0 
0 
0 
0 
0 
0 
0 
0 
0 
0 
0 
0 
0 
0 
0 
0 
0 
0 
0 
0 
0 
0 
0 
0 
0 
0 
0 
0 
0 
0 
0 
0 
0 
0 
0 
0 
0 
0 
0 
0 
0 
0 
0 
0 
0 
0 
0 
0 
0 
0 
0 
0 
0 
0 
0 
0 
0 
0 
0 
0 
0 
0 
0 
0 
0 
0 
0 
0 
0 
0 
0 
0 
0 
0 
0 
0 
0 
0 
0 
0 
0 
0 
0 
0 
0 
0 
0 
0 
0 
0 
0 
0 
0 
0 
0 
0 
0 
0 
0 
0 
0 
0 
0 
0 
0 
0 
0 
0 
0 
0 
0 
0 
0 
0 
0 
0 
0 
0 
0 
0 
0 
0 
0 
0 
0 
0 
0 
0 
0 
0 
0 
0 
0 
0 
0 
0 
0 
0 
0 
0 
0 
0 
0 
0 
0 
0 
0 
0 
0 
0 
0 
0 
0 
0 
0 
0 
0 
0 
0 
0 
0 
0 
0 
0 
0 
0 
0 
0 
0 
0 
0 
0 
0 
0 
0 
0 
0 
0 
0 
0 
0 
0 
0 
0 
0 
0 
0 
0 
0 
0 
0 
0 
0.5366269529 
0.5354896236 
0.5372738237 
0.5503740436 
0.5533149649 
0.5563797827 
0.38406545 
0.4040983482 
0.5561062045 
0.4204440934 
0.5536351999 
0.5686951148 
0.5650833106 
0.5116550885 
0.5532363661 
0.5487110138 
0.5596050169 
0.28821888 
0.5484749446 
0.5507193089 
0.5453206352 
0.5637656655 
0.5578286851 
0.5610439559 
0.5422097356 
0.4018603225 
0.4088205673 
0.4475554564 
0.4598478437 
0.435137989 
0.4684293914 
0.3727406911 
0.3707207387 
0.344349616 
0.3575218126 
0.5517507041 
0.553951454 
0.5433414313 
0.5299566481 
0.5485649967 
0.5484474671 
0.2360922228 
0.5514062475 
0.5382557757 
0.549704872 
0.5399894993 
0.5412846368 
0.5429075882 
0.5559299374 
0.5626998033 
0.5597933997 
0.557481862 
0.5537955289 
0.5632860014 
0.5314678543 
0.5184754601 
0.5172649818 
0.5363561065 
0.5611960651 
0.5258251266 
0.5298764033 
0.5152128869 
0.4737097573 
0.5333430699 
0.5418928283 
0.5453647195 
0.5421182775 
0.539824271 
0.5336258664 
0.5066890068 
0.4935456693 
0.5113530713 
0.5058613314 
0.5594404983 
0.5061610283 
0.4531077074 
0.4632169419 
0.5206245346 
0.4853643326 
0.4168969417 
0.451449462 
0.4421094987 
0.4897786709 
0.5361091088 
0.5192865915 
0.491894319 
0.506262669 
0.5295035464 
0.5102572234 
0.5511193972 
0.5514529018 
0.5559142095 
0.5471906953 
0.5555257696 
0.5494490198 
0.5532179187 
0.5438614614 
0.5661162 
0.5579505581 
0.5543489522 
0.5640673971 
0.5600941708 
0.4571111382 
0.4718000134 
0.4060860887 
0.3883281498 
0.3852023772 
0.3898659003 
0.4787736464 
0.4015626762 
0.4020031178 
0.4311248607 
0.4989826152 
0.3773390791 
0.4460577788 
0.4072093788 
0.3800242041 
0.4179532286 
0.4393570681 
0.4345773218 
0.5633072684 
0.5653380483 
0.5362301943 
0.5446685864 
0.5635177964 
0.5597549142 
0.5471057996 
0.553836657 
0.5600267422 
0.5575250148 
0.5315850791 
0.5378651806 
0.4130553898 
0.4562905897 
0.4449315087 
0.3893993097 
0.3695449123 
0.4144660765 
0.5598908703 
0.5627297837 
0.5538564868 
0.5525700392 
0.5427102959 
0.5625285632 
0.5656981445 
0.5056228062 
0.5426042747 
0.5089396111 
0.4938936547 
0.5157984771 
0.5060355019 
0.5375722667 
0.2852906421 
0.4499201605 
0.4359806772 
0.4489070255 
0.4179151807 
0.5641877837 
0.567218931 
0.5533506433 
0.4508996681 
0.5681028694 
0.5579786696 
0.5164559844 
0.5114006084 
0.5088465309 
0.5496882702 
0.5649530292 
0.5515734565 
0.3809111901 
0.5390988445 
0.5435581337 
0.264473457 
0.5076961831 
0.5641233503 
0.5171609073 
0.5281095601 
0.5389838965 
0.5422627318 
0.5433733174 
0.5326559733 
0.5370758893 
0.5446992145 
0.4995579169 
0.5575968671 
0.4889977171 
0.4835171304 
0.5056357514 
0.4785798234 
0.5343261513 
0.448653108 
0.4474017336 
0.4827383046 
0.561018919 
0.4559005887 
0.4362603194 
0.5453408755 
0.5667077033 
0.5625436772 
0.5611130955 
0.5283948761 
0.5069402497 
0.4937445307 
0.509477653 
0.5553231457 
0.5420217489 
0.5536820172 
0.5521182743 
0.5605274877 
0.3561294418 
0.4123855406 
0.4604972335 
0.4299016489 
0.2626639111 
0.2420155791 
0.3988919868 
0.4129543242 
0.5108798791 
0.5388582303 
0.5393392216 
0.5043011535 
0.5090735289 
0.5274170663 
0.523367159 
0.4946303523 
0.509978317 
0.5023505682 
0.5632860224 
0.4977586444 
0.4971359974 
0.5501766657 
0.542947777 
0.5548381593 
0.5642046202 
0.5425201973 
0.5534699179 
0.5653492923 
0.5589015552 
0.2234776985 
0.5060232329 
0.5253368668 
0.5188916039 
0.5208622032 
0.5295619766 
0.5199906637 
0.5190599776 
0.467517542 
0.4345080592 
0.4526842692 
0.4851757975 
0.5543549491 
0.4287001276 
0.4580453689 
0.4631537292 
0.4566903439 
0.4726935283 
0.4063865583 
0.4423504738 
0.4434985893 
0.4744584257 
0.4873732035 
0.4803430955 
0.4814599528 
0.4443263726 
0.430914767 
0.5551865651 
0.5625353705 
0.5601508286 
0.4879929569 
0.556814952 
0.548609672 
0.5631360043 
0.5568894265 
0.5539581511 
0.4145270189 
0.3684155432 
0.4515993102 
0.5107944953 
0.528999513 
0.5177414754 
0.5200180685 
0.5316592606 
0.5171706219 
0.4864638035 
0.5155417049 
0.5336610679 
0.5410981953 
0.5346320632 
0.5301989837 
0.5472470574 
0.5469800584 
0.5255737529 
0.5615903003 
0.5594102652 
0.5463431731 
0.5540675897 
0.5520895053 
0.5632066369 
0.5649810641 
0.5612310258 
0.5565558534 
0.5590068518 
0.5533052661 
0.5638474852 
0.5562861906 
0.5047594952 
0.5305111928 
0.548492911 
0.5253341678 
0.5357221295 
0.5230938405 
0.5421597251 
0.4691831304 
0.4654718022 
0.4461947374 
0.4652315402 
0.4514777665 
0.5600271825 
0.5657321305 
0.561199763 
0.5599272335 
0.5533298529 
0.5614710162 
0.2978413764 
0.2908494125 
0.3387800545 
0.3218256535 
0.3385964748 
0.3460700673 
0.5573703487 
0.5656833898 
0.5618462621 
0.5554319995 
0.5556840039 
0.5659304522 
0.4635304402 
0.4110979065 
0.4152533843 
0.5068200393 
0.4543877274 
0.4336684461 
0.458663351 
0.4357290686 
0.4589142745 
0.3774669159 
0.3743484414 
0.376677085 
0.4237871078 
0.4151625995 
0.4018535048 
0.3998518707 
0.4128998299 
0.4021015381 
0.5549410747 
0.3679364045 
0.4367969509 
0.400036668 
0.3572988978 
0.2743816004 
0.3581442417 
0.3908353182 
0.3670578286 
0.4667638052 
0.432378865 
0.4512498306 
0.4570250738 
0.4347258005 
0.4313690727 
0.4481914971 
0.3872488912 
0.4683394873 
0.3789695763 
0.3861093731 
0.3566419623 
0.4532537713 
0.4155532793 
0.3765269542 
0.3912989251 
0.408581261 
0.5538521239 
0.4223806748 
0.3642044386 
0.4408408317 
0.3909189404 
0.4090682194 
0.4375226067 
0.4003706153 
0.4899784106 
0.4807563634 
0.4587437692 
0.4875577765 
0.4357711804 
0.4654098496 
0.503668903 
0.4985665467 
0.3176950654 
0.3637871159 
0.3870933191 
0.4150632388 
0.442868782 
0.4663202318 
0.353804467 
0.4241657069 
0.3531155754 
0.3195055005 
0.3462484267 
0.3745897316 
0.4149851534 
0.342556472 
0.3740917224 
0.4460200781 
0.4151582665 
0.3641458934 
0.3748167635 
0.3981298773 
0.3504200568 
0.3862144148 
0.3957266369 
0.3691845798 
0.3507267865 
0.3524131692 
0.3816122764 
0.4416440299 
0.4056761981 
0.4360290006 
0.4800150674 
0.3982401663 
0.334856359 
0.4070446523 
0.370439915 
0.4087792464 
0.3413118214 
0.3781538441 
0.3682578824 
0.3153144079 
0.2905164481 
0.2837969966 
0.3309412503 
0.3163796926 
0.3301789715 
0.235695931 
0.2869385508 
0.5354109311 
0.5480922721 
0.5396918102 
0.5548569201 
0.5611796585 
0.554638469 
0.5385301456 
0.5323629171 
0.5616638152 
0.5436267888 
0.5530477367 
0.5155093136 
0.5408713544 
0.5493513027 
0.5521834121 
0.5312468699 
0.5368429265 
0.5525938092 
0.522630466 
0.5487142278 
0.4512027612 
0.4350282275 
0.4696599849 
0.4352496381 
0.549984687 
0.5489425202 
0.5328360628 
0.5556168485 
0.5511360647 
0.559727643 
0.5665433256 
0.5128673229 
0.5522730398 
0.5572506657 
0.561505426 
0.5611565646 
0.5646919887 
0.5434079623 
0.5516937892 
0.5598568652 
0.5551738849 
0.5659252018 
0.5543529989 
0.5474676639 
0.554144719 
0.5613877392 
0.5570421313 
0.560903884 
0.5591938163 
0.5656279033 
0.3176782359 
0.5534053741 
0.54296413 
0.5520079623 
0.5520430963 
0.5500095636 
0.5444281602 
0.5463078461 
0.387220035 
0.5452045974 
0.5594043286 
0.5656628404 
0.5562500302 
0.513213604 
0.5348203904 
0.4972783838 
0.5269178293 
0.4996340628 
0.5221698982 
0.527902538 
0.5268287417 
0.5325684383 
0.4900584345 
0.52177599 
0.5025831737 
0.5014632771 
0.5079159541 
0.5330655787 
0.5595553557 
0.5657632764 
0.562886906 
0.5442231254 
0.5432787065 
0.5531431107 
0.5333598839 
0.5694220353 
0.5486482869 
0.5557514146 
0.550241243 
0.55871667 
0.5350767881 
0.5627703542 
0.5685776454 
0.5573911563 
0.5559947319 
0.5703253439 
0.4092478717 
0.5607821158 
0.2330588498 
0.3895929239 
0.3818786084 
0.4169890362 
0.2844387057 
0.4600481281 
0.3235049545 
0.3423340676 
0.455552913 
0.4313185419 
0.4792206705 
0.42963379 
0.3085567866 
0.3544727613 
0.5365007798 
0.5416189382 
0.5313715145 
0.5249377424 
0.5339990678 
0.5395453396 
0.5091338842 
0.4905848818 
0.5332849491 
0.5220740453 
0.2371680091 
0.5237829098 
0.5322155244 
0.5508816727 
0.5416360558 
0.5456888702 
0.5524736861 
0.5458718494 
0.5558870175 
0.5723902451 
0.561785244 
0.5364061484 
0.5341489432 
0.5451635976 
0.5257842733 
0.5513951043 
0.5503612517 
0.55778727 
0.5335228612 
0.5317381371 
0.5471956879 
0.551367522 
0.4671791327 
0.4654514177 
0.5078112502 
0.4978163428 
0.2929035434 
0.4891167951 
0.5078833771 
0.5009443895 
0.4764277447 
0.5105036562 
0.4829277785 
0.5021320905 
0.5153726939 
0.4988751082 
0.4783813742 
0.4821296856 
0.5230956286 
0.4747712939 
0.5066298829 
0.5322487486 
0.4778677257 
0.5082983777 
0.5013738664 
0.507720415 
0.4420437476 
0.4210374575 
0.4888221357 
0.4833734549 
0.4998467325 
0.5025648726 
0.5052028186 
0.41641291 
0.4746873679 
0.49522209 
0.5371506295 
0.5026340808 
0.4781314376 
0.5354431238 
0.5283009793 
0.4713725909 
0.4522209123 
0.2984009758 
0.3278195283 
0.3843851854 
0.3943736866 
0.5467879214 
0.5578076749 
0.555317036 
0.563990728 
0.5527722784 
0.3586455039 
0.359103849 
0.3381641788 
0.3274929187 
0.409885182 
0.3507560038 
0.3798557475 
0.3467077652 
0.3698250279 
0.4180442134 
0.5534659474 
0.5608040887 
0.5598222164 
0.5786261746 
0.5561956162 
0.5638416489 
0.5542252008 
0.5462825617 
0.544579171 
0.531332222 
0.5554556064 
0.5049519026 
0.5278380923 
0.5382094857 
0.5349659742 
0.5371067588 
0.5358960817 
0.5324593381 
0.485194075 
0.5494728811 
0.5426799761 
0.5059246734 
0.5488057847 
0.530263337 
0.5528956155 
0.5199310941 
0.3631834122 
0.5034945198 
0.5220643704 
0.482593265 
0.4887333901 
0.5067773949 
0.4581672539 
0.5073009696 
0.4858490053 
0.4460517387 
0.2356412032 
0.4635037681 
0.4867118465 
0.4998014652 
0.4449239857 
0.4527450775 
0.4595026292 
0.4844310796 
0.4372127837 
0.3786238099 
0.4774520307 
0.441767955 
0.5103777754 
0.5224204675 
0.5219536504 
0.5143266704 
0.2482961813 
0.5064849216 
0.4872675724 
0.471572781 
0.4814077345 
0.4907409294 
0.4975972943 
0.4822114957 
0.3714043109 
0.5121296665 
0.5255404715 
0.4850483059 
0.4426190679 
0.5543087014 
0.5598919088 
0.5574622716 
0.5688163085 
0.5593368042 
0.5511171325 
0.5391395185 
0.554083878 
0.5535550205 
0.5287128196 
0.5066725856 
0.548337982 
0.5226091227 
0.53732734 
0.5586990286 
0.5527187038 
0.5294909555 
0.5398072382 
0.535267398 
0.4196039979 
0.5493250618 
0.5278038653 
0.550484667 
0.5567409767 
0.5533836692 
0.5667202292 
0.5626843108 
0.4606660829 
0.565800454 
0.5611708119 
0.3652610107 
0.3838372916 
0.4514557122 
0.387117162 
0.4343194716 
0.3916306376 
0.3803939651 
0.4175799288 
0.4062841172 
0.4243666405 
0.3709403539 
0.4270500333 
0.3093156556 
0.3981572193 
0.3134847617 
0.3581257499 
0.5301511828 
0.5276840489 
0.5225179089 
0.5414054592 
0.5600645244 
0.5387987388 
0.5620557354 
0.2872309094 
0.5544086524 
0.5288152049 
0.5535031834 
0.5268384191 
0.5502662631 
0.5627182971 
0.5542123918 
0.5508098626 
0.5555710175 
0.5508063457 
0.561895297 
0.5528455502 
0.5559062161 
0.5607276163 
0.5461496896 
0.5610116888 
0.5634805401 
0.5714025828 
0.560564877 
0.5653419084 
0.5620209907 
0.5508451615 
0.4984822401 
0.4783697725 
0.5052162743 
0.5214403857 
0.4809272914 
0.2937157248 
0.4968466733 
0.5620793128 
0.5634924405 
0.5655757325 
0.566321254 
0.2632231487 
0.2738802165 
0.2636571534 
0.2707114874 
0.250364357 
0.2679322215 
0.2419235446 
0.2515934161 
0.2562325537 
0.439353549 
0.4242399988 
0.443441083 
0.4528345086 
0.4455353119 
0.4602604021 
0.275887327 
0.2882514577 
0.3472743674 
0.4563412018 
0.4417858731 
0.4764808124 
0.4096607775 
0.4845732871 
0.4661695704 
0.3185766443 
0.2765930421 
0.2908767671 
0.2532996851 
0.5691502859 
0.5555135118 
0.556868067 
0.5473113658 
0.2259211926 
0.5566189813 
0.5523067211 
0.5609676992 
0.5701419024 
0.5573017099 
0.5611900016 
0.5586219188 
0.5778794837 
0.5707763737 
0.5518522238 
0.4007421448 
0.3658560249 
0.3967541539 
0.5475304564 
0.5740123518 
0.4451614201 
0.5656337741 
0.5549996211 
0.5567582242 
0.5607546797 
0.5041570427 
0.4960329361 
0.4913862188 
0.4992965924 
0.4902153827 
0.5163034492 
0.5389415226 
0.561578132 
0.5634774642 
0.5606696384 
0.5475112097 
0.3045214794 
0.4973814993 
0.5308265935 
0.4343239013 
0.5177428252 
0.5559126068 
0.403335718 
0.4929185525 
0.5377252983 
0.5290557105 
0.4945132227 
0.537549105 
0.531483805 
0.5163039788 
0.5148671268 
0.3282422128 
0.3552595662 
0.32802894 
0.5332917865 
0.2936235626 
0.2430040058 
0.5521105765 
0.4961260675 
0.531461331 
0.4864215222 
0.5114469472 
0.5155186093 
0.5488925227 
0.5509915588 
0.5667995846 
0.5516035312 
0.5626000481 
0.5639958943 
0.5495825487 
0.5382328691 
0.5430356551 
0.5520527263 
0.5607500055 
0.2718793888 
0.2664387772 
0.5651334995 
0.3120054752 
0.330680495 
0.2476612555 
0.2733770823 
0.5439485233 
0.3111976707 
0.3256899473 
0.5618405591 
0.5705051608 
0.5547305448 
0.5683747629 
0.5502574501 
0.4033135308 
0.4119504944 
0.4137509011 
0.413473692 
0.4235118099 
0.3073828719 
0.3450939782 
0.3702312062 
0.3704596485 
0.33501917 
0.2594620061 
0.340013661 
0.2667545549 
0.2784253824 
0.5648590387 
0.5661590631 
0.555224978 
0.5619304053 
0.5574072594 
0.5500671132 
0.2489203502 
0.2885173461 
0.2882245487 
0.5650222945 
0.3423895405 
0.4306277501 
0.4549301052 
0.4286066761 
0.4335745487 
0.5549850746 
0.3362052944 
0.568009516 
0.5619905984 
0.554517849 
0.5578434891 
0.5585022927 
0.5621863271 
0.5723214131 
0.5626420572 
0.5524153216 
0.5767375502 
0.5202952215 
0.5627030104 
0.3959527692 
0.3213587051 
0.351383469 
0.2913802446 
0.3349410113 
0.2741374648 
0.2798941303 
0.2577772826 
0.2778079195 
0.3195020092 
0.4530340682 
0.4812425472 
0.4582353116 
0.467320013 
0.5642457176 
0.560217746 
0.5724217121 
0.5553779119 
0.5635590985 
0.5576734594 
0.5571166476 
0.567583563 
0.4815610887 
0.3005366115 
0.4607543872 
0.498239854 
0.4957465649 
0.3504145988 
0.5565287781 
0.5512307644 
0.2456873574 
0.5530520413 
0.5431005469 
0.5684777748 
0.5728953212 
0.5560665381 
0.5588336004 
0.5281650778 
0.5457692014 
0.3137781415 
0.5563908557 
0.5212822384 
0.5656871972 
0.554121955 
0.5556759937 
0.550518742 
0.567804492 
0.5626051857 
0.5556928528 
0.5741661249 
0.4789685194 
0.3534071034 
0.2940188547 
0.265105546 
0.3401798567 
0.5560353494 
0.3285315258 
0.3700038271 
0.3560517603 
0.5526866337 
0.5650630544 
0.5539600784 
0.5458594876 
0.5793689407 
0.5623240409 
0.5513299574 
0.5354195856 
0.5411919984 
0.5461423706 
0.559650964 
0.5379722587 
0.5232907788 
0.5124565051 
0.4856052154 
0.5656498091 
0.2774160793 
0.4717372419 
0.3916966547 
0.3661704736 
0.3443145907 
0.3504009466 
0.4252308216 
0.4282044691 
0.4474899083 
0.3897528564 
0.4706302394 
0.4706324433 
0.2935902709 
0.4413439074 
0.3552918112 
0.5369107205 
0.3300185428 
0.3008032097 
0.4202721021 
0.3828269519 
0.3552898449 
0.2961177098 
0.3533991284 
0.5607791045 
0.3836508795 
0.3324118559 
0.2790508585 
0.3676187852 
0.321071622 
0.5504750772 
0.5577726385 
0.555956519 
0.5411141592 
0.5292653051 
0.5421529157 
0.5187751906 
0.4349412613 
0.4745935513 
0.4595882584 
0.3944685534 
0.4506564567 