# vtk DataFile Version 3.0
MOAB 4.99 (Alpha)
ASCII
DATASET UNSTRUCTURED_GRID
POINTS 941 double
5 1 1
5 -1 1
5 -0.6 1
5 -0.2 1
5 0.2 1
5 0.6 1
3 -1 -1
3.25 -1 -0.75
3.5 -1 -0.5
3.75 -1 -0.25
4 -1 4.440892099e-16
4.25 -1 0.25
4.5 -1 0.5
4.75 -1 0.75
3 1 -1
3 0.6 -1
3 0.2 -1
3 -0.2 -1
3 -0.6 -1
4.75 1 0.75
4.5 1 0.5
4.25 1 0.25
4 1 4.440892099e-16
3.75 1 -0.25
3.5 1 -0.5
3.25 1 -0.75
3.210534347 0.3456156476 -0.7894656535
3.237579789 0.02323972097 -0.7624202105
3.260077995 -0.3369398435 -0.7399220054
4.66128468 0.6420733885 0.6612846795
4.387425658 0.6478035315 0.3874256579
4.127422783 0.6605799727 0.1274227835
3.874334095 0.6591986653 -0.1256659048
3.615032709 0.6473723453 -0.3849672912
3.34148886 0.6428667433 -0.6585111399
4.794943029 -0.3328127876 0.7949430294
4.776893838 0.004760438475 0.776893838
4.79476624 0.3398623493 0.7947662396
3.352897705 -0.6767119424 -0.6471022951
3.612851485 -0.685585578 -0.3871485146
3.86653946 -0.6683737223 -0.1334605404
4.125233072 -0.6591947061 0.1252330723
4.387426995 -0.6404608724 0.3874269946
4.661396082 -0.634846041 0.6613960816
3.470461255 0.2667555942 -0.5295387448
3.471725451 -0.1303904056 -0.5282745489
4.53529653 0.2465105609 0.5352965303
4.251750301 0.3149278043 0.2517503015
3.999672335 0.3263318987 -0.0003276647424
3.748686449 0.3210592429 -0.2513135508
4.535235548 -0.2376028235 0.535235548
3.482398389 -0.4309857217 -0.5176016111
3.708720333 -0.317234075 -0.2912796668
3.990796674 -0.3252886488 -0.009203326325
4.249586538 -0.3093708721 0.2495865382
3.654619287 0.02856387022 -0.3453807126
4.338265664 0.003206383659 0.3382656643
4.11726241 0.002072593402 0.1172624102
3.869959581 0.005917480259 -0.1300404185
10 1 1
10 -1 1
10 0.6 1
10 0.2 1
10 -0.2 1
10 -0.6 1
10 -1 -1
10 -1 0.6
10 -1 0.2
10 -1 -0.2
10 -1 -0.6
10 1 -1
10 -0.6 -1
10 -0.2 -1
10 0.2 -1
10 0.6 -1
10 1 -0.6
10 1 -0.2
10 1 0.2
10 1 0.6
10 0.4052531952 0.6719438381
10 -0.001326739737 0.6398182875
10 -0.4084466782 0.6730790076
10 -0.671668119 0.4109975243
10 -0.6409559612 0.002665308352
10 -0.6741562537 -0.4067531861
10 -0.4126332896 -0.6703225438
10 -0.005823851008 -0.6385848783
10 0.4033337139 -0.671818987
10 0.6657077798 -0.40925766
10 0.6331965555 -5.201324309e-05
10 0.6677757402 0.4090861353
10 0.7346057871 0.7362059947
10 -0.7360229594 0.7368153064
10 -0.7373579087 -0.735415146
10 0.7338082987 -0.7362153294
10 0.2405618544 0.2463031768
10 -0.2488935914 0.2473010883
10 -0.2507661259 -0.2443109294
10 0.2398134703 -0.2452073142
10 -0.004821098151 0.001021505389
9.631578947 1 -1
9.263157895 1 -1
8.894736842 1 -1
8.526315789 1 -1
8.157894737 1 -1
7.789473684 1 -1
7.421052632 1 -1
7.052631579 1 -1
6.684210526 1 -1
6.315789474 1 -1
5.947368421 1 -1
5.578947368 1 -1
5.210526316 1 -1
4.842105263 1 -1
4.473684211 1 -1
4.105263158 1 -1
3.736842105 1 -1
3.368421053 1 -1
3.368421053 -1 -1
3.736842105 -1 -1
4.105263158 -1 -1
4.473684211 -1 -1
4.842105263 -1 -1
5.210526316 -1 -1
5.578947368 -1 -1
5.947368421 -1 -1
6.315789474 -1 -1
6.684210526 -1 -1
7.052631579 -1 -1
7.421052632 -1 -1
7.789473684 -1 -1
8.157894737 -1 -1
8.526315789 -1 -1
8.894736842 -1 -1
9.263157895 -1 -1
9.631578947 -1 -1
9.503571304 0.6394043447 -1
9.100312866 0.644927294 -1
8.714983355 0.6625544396 -1
8.341662596 0.6705850245 -1
7.971680862 0.6741187011 -1
7.602861727 0.6757371277 -1
7.234476715 0.6764303752 -1
6.866212438 0.6766752715 -1
6.497941654 0.6767190089 -1
6.129624376 0.6766782118 -1
5.761252876 0.6765997553 -1
5.392823336 0.6764998692 -1
5.024320915 0.6763842324 -1
4.655715009 0.6762468231 -1
4.287177674 0.6745658985 -1
3.91461422 0.6672888523 -1
3.516663057 0.6492571414 -1
9.7000353 -0.3339302879 -1
9.674144814 0.002504537714 -1
9.699978131 0.3376363908 -1
3.514894956 -0.6449163458 -1
3.912179142 -0.657849801 -1
4.286721556 -0.6612752796 -1
4.656454315 -0.6623331582 -1
5.025396377 -0.6628736722 -1
5.394026083 -0.6631268317 -1
5.762489784 -0.6632064594 -1
6.130866209 -0.6631976983 -1
6.499188524 -0.6631543728 -1
6.86746406 -0.6631203889 -1
7.235700957 -0.6631716821 -1
7.603949174 -0.6634653839 -1
7.972342425 -0.6642360643 -1
8.342186698 -0.6634273202 -1
8.715450327 -0.6570251926 -1
9.099831232 -0.6403481372 -1
9.502603854 -0.6355206693 -1
3.342479699 0.2975788678 -1
3.248181565 0.00176425446 -1
3.340851077 -0.2926452568 -1
9.318645045 0.2442530876 -1
8.898903291 0.3168846047 -1
8.525373965 0.3351958236 -1
8.155348817 0.3416738286 -1
7.786197747 0.3447095176 -1
7.417668526 0.3462149004 -1
7.04942251 0.3468621718 -1
6.681236945 0.3470656434 -1
6.313010465 0.3470667265 -1
5.944707859 0.3469878379 -1
5.576309141 0.3468920224 -1
5.207774561 0.3468255216 -1
4.839039189 0.3468200567 -1
4.471636864 0.345260507 -1
4.102306366 0.3399899304 -1
3.725047232 0.3279584995 -1
9.318038971 -0.2382415933 -1
3.724034175 -0.317293208 -1
4.100380698 -0.3228331462 -1
4.47104319 -0.323631171 -1
4.839782257 -0.3237914646 -1
5.208566603 -0.3240584051 -1
5.5771416 -0.3241704809 -1
5.945552922 -0.3241629025 -1
6.313853726 -0.3241050171 -1
6.682068418 -0.324068723 -1
7.050220202 -0.3241699542 -1
7.418385864 -0.3246310563 -1
7.786747026 -0.3257767649 -1
8.156146797 -0.3264964819 -1
8.526188598 -0.3235217298 -1
8.898888285 -0.3079585867 -1
9.027625988 0.004282151413 -1
8.702637871 0.005631534321 -1
8.339239551 0.007366020341 -1
7.970807176 0.009211197689 -1
7.60213317 0.0107499787 -1
7.23379334 0.01168661146 -1
6.865593355 0.01208170244 -1
6.497395756 0.01217775096 -1
6.129135557 0.01214810063 -1
5.760778178 0.01209634592 -1
5.392278264 0.01209709327 -1
5.023575455 0.01220325834 -1
4.655674363 0.01163953648 -1
4.286850042 0.009913080958 -1
3.915463298 0.007053088735 -1
3.549342841 0.004069374272 -1
9.642857143 -1 1
9.285714286 -1 1
8.928571429 -1 1
8.571428571 -1 1
8.214285714 -1 1
7.857142857 -1 1
7.5 -1 1
7.142857143 -1 1
6.785714286 -1 1
6.428571429 -1 1
6.071428571 -1 1
5.714285714 -1 1
5.357142857 -1 1
5.116450996 -1 0.6970162925
3.54332125 -1 -0.779838856
3.863822909 -1 -0.6485718889
4.286484801 -1 -0.6733846675
4.658068784 -1 -0.6819957804
5.022031899 -1 -0.6792191559
5.391027104 -1 -0.6767471857
5.762339914 -1 -0.6772683657
6.132590528 -1 -0.6778009251
6.501672438 -1 -0.6779104015
6.870123747 -1 -0.6778544754
7.238359032 -1 -0.6777416152
7.606547991 -1 -0.6776012716
7.974767141 -1 -0.6774520123
8.343123549 -1 -0.6773461395
8.710938737 -1 -0.6769720868
9.081053923 -1 -0.6732941026
9.476316231 -1 -0.6557949319
9.705284688 -1 0.3494337396
9.678371329 -1 0.03802302095
9.634118103 -1 -0.3082373086
9.516065721 -1 0.6443734957
9.123909486 -1 0.6469478462
8.747461596 -1 0.6572973955
8.382589515 -1 0.6622306798
8.021331429 -1 0.6640856656
7.661259973 -1 0.6646850227
7.30156031 -1 0.6648289276
6.94196028 -1 0.6648203922
6.58234943 -1 0.664753909
6.219466188 -1 0.6635816508
5.853275117 -1 0.66445183
5.485054958 -1 0.6733606294
4.124286759 -1 -0.3357676017
4.351854539 -1 -0.07071373582
4.597445524 -1 0.1618126189
4.862673385 -1 0.4113737757
4.483948365 -1 -0.3759660577
4.830198077 -1 -0.3674331902
5.198064287 -1 -0.3452836569
5.580989135 -1 -0.3453945578
5.956842446 -1 -0.347254739
6.327919171 -1 -0.347953209
6.696443621 -1 -0.3479815674
7.063816126 -1 -0.3478593371
7.430846925 -1 -0.3477114705
7.797882021 -1 -0.3476396613
8.16525776 -1 -0.3478909103
8.531203754 -1 -0.3489702363
8.89717499 -1 -0.3520241139
9.261762399 -1 -0.3512981737
9.347185719 -1 0.2669012357
8.929485784 -1 0.3052308617
8.553810625 -1 0.3186330706
8.187912786 -1 0.3232673627
7.8242382 -1 0.3247744372
7.461450791 -1 0.3251756456
7.098930397 -1 0.3252010328
6.736326686 -1 0.3251023748
6.371200255 -1 0.3243229853
6.002368837 -1 0.3252586589
5.627770734 -1 0.3323591074
4.968433353 -1 0.01109089513
5.243174429 -1 0.3532256716
4.646375971 -1 -0.1282418939
5.400528094 -1 -0.001255018014
5.787897457 -1 -0.008633563846
6.162313532 -1 -0.01159572521
6.531305545 -1 -0.01220653239
6.897636944 -1 -0.0121176999
7.262832764 -1 -0.01203162701
7.627860612 -1 -0.01209704121
7.993284999 -1 -0.01268835685
8.358601455 -1 -0.0148528636
8.726013169 -1 -0.02184944615
9.092955134 -1 -0.03872747108
9.402878537 -1 -0.07866773937
5.357142857 1 1
5.714285714 1 1
6.071428571 1 1
6.428571429 1 1
6.785714286 1 1
7.142857143 1 1
7.5 1 1
7.857142857 1 1
8.214285714 1 1
8.571428571 1 1
8.928571429 1 1
9.285714286 1 1
9.642857143 1 1
9.517255987 -0.6418925102 1
9.125889358 -0.6492818316 1
8.752312553 -0.6682682011 1
8.390507378 -0.6769501083 1
8.031951083 -0.6807315919 1
7.674492569 -0.6823889531 1
7.317408716 -0.6830047059 1
6.960360131 -0.6831063848 1
6.60315386 -0.6829483532 1
6.242111814 -0.6816269869 1
5.871971295 -0.67747148 1
5.486999864 -0.666953029 1
9.70788834 0.3326338686 1
9.682452218 -0.004815132549 1
9.707812956 -0.3397804687 1
5.48758107 0.6570617965 1
5.872208273 0.6610765828 1
6.241370276 0.6606194631 1
6.603458155 0.6604712739 1
6.962142737 0.6606217315 1
7.31958576 0.6608042462 1
7.676644574 0.6611538082 1
8.033767633 0.6620007496 1
8.392079632 0.66104457 1
8.753535469 0.6545256629 1
9.12606891 0.6383122897 1
9.516934497 0.6343465293 1
5.311077384 -0.3665023152 1
5.399805096 -0.008215081421 1
5.31054606 0.354944263 1
9.337132222 -0.2488907198 1
8.92980367 -0.3240190495 1
8.567761038 -0.3435413148 1
8.209223093 -0.3505557314 1
7.851508088 -0.3537649774 1
7.494316128 -0.3552654693 1
7.137243922 -0.3558291215 1
6.779853535 -0.3559172044 1
6.418085342 -0.3546639501 1
6.045608747 -0.3511896801 1
5.66000966 -0.3479115015 1
9.336947966 0.2347176755 1
5.660803245 0.3278246548 1
6.045268702 0.3211946064 1
6.417165217 0.3187055658 1
6.779830698 0.3179593864 1
7.138352844 0.3180244164 1
7.495667205 0.3185157867 1
7.852818467 0.3197328264 1
8.210722571 0.3204318397 1
8.569135272 0.3176415205 1
8.930349181 0.3028777996 1
9.054850528 -0.0101555034 1
8.739763724 -0.01263171593 1
8.387622703 -0.01504616716 1
8.030641467 -0.01716246711 1
7.673333001 -0.01877812214 1
7.316131934 -0.01973137148 1
6.958507822 -0.0201044444 1
6.597639163 -0.01945744668 1
6.228060457 -0.01709138801 1
5.839925984 -0.01256473164 1
5.125025696 1 0.7031192142
[...]
CELL_DATA 6437
SCALARS TALLY_TAG double 1
LOOKUP_TABLE default
0 
0 
0 
0 
0 
0 
0 
0 
0 
0 
0 
0 
0 
0 
0 
0 
0 
0 
0 
0 
0 
0 
0 
0 
0 
0 
0 
0 
0 
0 
0 
0 
0 
0 
0 
0 
0 
0 
0 
0 
0 
0 
0 
0 
0 
0 
0 
0 
0 
0 
0 
0 
0 
0 
0 
0 
0 
0 
0 
0 
0 
0 
0 
0 
0 
0 
0 
0 
0 
0 
0 
0 
0 
0 
0 
0 
0 
0 
0 
0 
0 
0 
0 
0 
0 
0 
0 
0 
0 
0 
0 
0 
0 
0 
0 
0 
0 
0 
0 
0 
0 
0 
0 
0 
0 
0 
0 
0 
0 
0 
0 
0 
0 
0 
0 
0 
0 
0 
0 
0 
0 
0 
0 
0 
0 
0 
0 
0 
0 
0 
0 
0 
0 
0 
0 
0 
0 
0 
0 
0 
0 
0 
0 
0 
0 
0 
0 
0 
0 
0 
0 
0 
0 
0 
0 
0 
0 
0 
0 
0 
0 
0 
0 
0 
0 
0 
0 
0 
0 
0 
0 
0 
0 
0 
0 
0 
0 
0 
0 
0 
0 
0 
0 
0 
0 
0 
0 
0 
0 
0 
0 
0 
0 
0 
0 
0 
0 
0 
0 
0 
0 
0 
0 
0 
0 
0 
0 
0 
0 
0 
0 
0 
0 
0 
0 
0 
0 
0 
0 
0 
0 
0 
0 
0 
0 
0 
0 
0 
0 
0 
0 
0 
0 
0 
0 
0 
0 
0 
0 
0 
0 
0 
0 
0 
0 
0 
0 
0 
0 
0 
0 
0 
0 
0 
0 
0 
0 
0 
0 
0 
0 
0 
0 
0 
0 
0 
0 
0 
0 
0 
0 
0 
0 
0 
0 
0 
0 
0 
0 
0 
0 
0 
0 
0 
0 
0 
0 
0 
0 
0 
0 
0 
0 
0 
0 
0 
0 
0 
0 
0 
0 
0 
0 
0 
0 
0 
0 
0 
0 
0 
0 
0 
0 
0 
0 
0 
0 
0 
0 
0 
0 
0 
0 
0 
0 
0 
0 
0 
0 
0 
0 
0 
0 
0 
0 
0 
0 
0 
0 
0 
0 
0 
0 
0 
0 
0 
0 
0 
0 
0 
0 
0 
0 
0 
0 
0 
0 
0 
0 
0 
0 
0 
0 
0 
0 
0 
0 
0 
0 
0 
0 
0 
0 
0 
0 
0 
0 
0 
0 
0 
0 
0 
0 
0 
0 
0 
0 
0 
0 
0 
0 
0 
0 
0 
0 
0 
0 
0 
0 
0 
0 
0 
0 
0 
0 
0 
0 
0 
0 
0 
0 
0 
0 
0 
0 
0 
0 
0 
0 
0 
0 
0 
0 
0 
0 
0 
0 
0 
0 
0 
0 
0 
0 
0 
0 
0 
0 
0 
0 
0 
0 
0 
0 
0 
0 
0 
0 
0 
0 
0 
0 
0 
0 
0 
0 
0 
0 
0 
0 
0 
0 
0 
0 
0 
0 
0 
0 
0 
0 
0 
0 
0 
0 
0 
0 
0 
0 
0 
0 
0 
0 
0 
0 
0 
0 
0 
0 
0 
0 
0 
0 
0 
0 
0 
0 
0 
0 
0 
0 
0 
0 
0 
0 
0 
0 
0 
0 
0 
0 
0 
0 
0 
0 
0 
0 
0 
0 
0 
0 
0 
0 
0 
0 
0 
0 
0 
0 
0 
0 
0 
0 
0 
0 
0 
0 
0 
0 
0 
0 
0 
0 
0 
0 
0 
0 
0 
0 
0 
0 
0 
0 
0 
0 
0 
0 
0 
0 
0 
0 
0 
0 
0 
0 
0 
0 
0 
0 
0 
0 
0 
0 
0 
0 
0 
0 
0 
0 
0 
0 
0 
0 
0 
0 
0 
0 
0 
0 
0 
0 
0 
0 
0 
0 
0 
0 
0 
0 
0 
0 
0 
0 
0 
0 
0 
0 
0 
0 
0 
0 
0 
0 
0 
0 
0 
0 
0 
0 
0 
0 
0 
0 
0 
0 
0 
0 
0 
0 
0 
0 
0 
0 
0 
0 
0 
0 
0 
0 
0 
0 
0 
0 
0 
0 
0 
0 
0 
0 
0 
0 
0 
0 
0 
0 
0 
0 
0 
0 
0 
0 
0 
0 
0 
0 
0 
0 
0 
0 
0 
0 
0 
0 
0 
0 
0 
0 
0 
0 
0 
0 
0 
0 
0 
0 
0 
0 
0 
0 
0 
0 
0 
0 
0 
0 
0 
0 
0 
0 
0 
0 
0 
0 
0 
0 
0 
0 
0 
0 
0 
0 
0 
0 
0 
0 
0 
0 
0 
0 
0 
0 
0 
0 
0 
0 
0 
0 
0 
0 
0 
0 
0 
0 
0 
0 
0 
0 
0 
0 
0 
0 
0 
0 
0 
0 
0 
0 
0 
0 
0 
0 
0 
0 
0 
0 
0 
0 
0 
0 
0 
0 
0 
0 
0 
0 
0 
0 
0 
0 
0 
0 
0 
0 
0 
0 
0 
0 
0 
0 
0 
0 
0 
0 
0 
0 
0 
0 
0 
0 
0 
0 
0 
0 
0 
0 
0 
0 
0 
0 
0 
0 
0 
0 
0 
0 
0 
0 
0 
0 
0 
0 
0 
0 
0 
0 
0 
0 
0 
0 
0 
0 
0 
0 
0 
0 
0 
0 
0 
0 
0 
0 
0 
0 
0 
0 
0 
0 
0 
0 
0 
0 
0 
0 
0 
0 
0 
0 
0 
0 
0 
0 
0 
0 
0 
0 
0 
0 
0 
0 
0 
0 
0 
0 
0 
0 
0 
0 
0 
0 
0 
0 
0 
0 
0 
0 
0 
0 
0 
0 
0 
0 
0 
0 
0 
0 
0 
0 
0 
0 
0 
0 
0 
0 
0 
0 
0 
0 
0 
0 
0 
0 
0 
0 
0 
0 
0 
0 
0 
0 
0 
0 
0 
0 
0 
0 
0 
0 
0 
0 
0 
0 
0 
0 
0 
0 
0 
0 
0 
0 
0 
0 
0 
0 
0 
0 
0 
0 
0 
0 
0 
0 
0 
0 
0 
0 
0 
0 
0 
0 
0 
0 
0 
0 
0 
0 
0 
0 
0 
0 
0 
0 
0 
0 
0 
0 
0 
0 
0 
0 
0 
0 
0 
0 
0 
0 
0 
0 
0 
0 
0 
0 
0 
0 
0 
0 
0 
0 
0 
0 
0 
0 
0 
0 
0 
0 
0 
0 
0 
0 
0 
0 
0 
0 
0 
0 
0 
0 
0 
0 
0 
0 
0 
0 
0 
0 
0 
0 
0 
0 
0 
0 
0 
0 
0 
0 
0 
0 
0 
0 
0 
0 
0 
0 
0 
0 
0 
0 
0 
0 
0 
0 
0 
0 
0 
0 
0 
0 
0 
0 
0 
0 
0 
0 
0 
0 
0 
0 
0 
0 
0 
0 
0 
0 
0 
0 
0 
0 
0 
0 
0 
0 
0 
0 
0 
0 
0 
0 
0 
0 
0 
0 
0 
0 
0 
0 
0 
0 
0 
0 
0 
0 
0 
0 
0 
0 
0 
0 
0 
0 
0 
0 
0 
0 
0 
0 
0 
0 
0 
0 
0 
0 
0 
0 
0 
0 
0 
0 
0 
0 
0 
0 
0 
0 
0 
0 
0 
0 
0 
0 
0 
0 
0 
0 
0 
0 
0 
0 
0 
0 
0 
0 
0 
0 
0 
0 
0 
0 
0 
0 
0 
0 
0 
0 
0 
0 
0 
0 
0 
0 
0 
0 
0 
0 
0 
0 
0 
0 
0 
0 
0 
0 
0 
0 
0 
0 
0 
0 
0 
0 
0 
0 
0 
0 
0 
0 
0 
0 
0 
0 
0 
0 
0 
0 
0 
0 
0 
0 
0 
0 
0 
0 
0 
0 
0 
0 
0 
0 
0 
0 
0 
0 
0 
0 
0 
0 
0 
0 
0 
0 
0 
0 
0 
0 
0 
0 
0 
0 
0 
0 
0 
0 
0 
0 
0 
0 
0 
0 
0 
0 
0 
0 
0 
0 
0 
0 
0 
0 
0 
0 
0 
0 
0 
0 
0 
0 
0 
0 
0 
0 
0 
0 
0 
0 
0 
0 
0 
0 
0 
0 
0 
0 
0 
0 
0 
0 
0 
0 
0 
0 
0 
0 
0 
0 
0 
0 
0 
0 
0 
0 
0 
0 
0 
0 
0 
0 
0 
0 
0 
0 
0 
0 
0 
0 
0 
0 
0 
0 
0 
0 
0 
0 
0 
0 
0 
0 
0 
0 
0 
0 
0 
0 
0 
0 
0 
0 
0 
0 
0 
0 
0 
0 
0 
0 
0 
0 
0 
0 
0 
0 
0 
0 
0 
0 
0 
0 
0 
0 
0 
0 
0 
0 
0 
0 
0 
0 
0 
0 
0 
0 
0 
0 
0 
0 
0 
0 
0 
0 
0 
0 
0 
0 
0 
0 
0 
0 
0 
0 
0 
0 
0 
0 
0 
0 
0 
0 
0 
0 
0 
0 
0 
0 
0 
0 
0 
0 
0 
0 
0 
0 
0 
0 
0 
0 
0 
0 
0 
0 
0 
0 
0 
0 
0 
0 
0 
0 
0 
0 
0 
0 
0 
0 
0 
0 
0 
0 
0 
0 
0 
0 
0 
0 
0 
0 
0 
0 
0 
0 
0 
0 
0 
0 
0 
0 
0 
0 
0 
0 
0 
0 
0 
0 
0 
0 
0 
0 
0 
0 
0 
0 
0 
0 
0 
0 
0 
0 
0 
0 
0 
0 
0 
0 
0 
0 
0 
0 
0 
0 
0 
0 
0 
0 
0 
0 
0 
0 
0 
0 
0 
0 
0 
0 
0 
0 
0 
0 
0 
0 
0 
0 
0 
0 
0 
0 
0 
0 
0 
0 
0 
0 
0 
0 
0 
0 
0 
0 
0 
0 
0 
0 
0 
0 
0 
0 
0 
0 
0 
0 
0 
0 
0 
0 
0 
0 
0 
0 
0 
0 
0 
0 
0 
0 
0 
0 
0 
0 
0 
0 
0 
0 
0 
0 
0 
0 
0 
0 
0 
0 
0 
0 
0 
0 
0 
0 
0 
0 
0 
0 
0 
0 
0 
0 
0 
0 
0 
0 
0 
0 
0 
0 
0 
0 
0 
0 
0 
0 
0 
0 
0 
0 
0 
0 
0 
0 
0 
0 
0 
0 
0 
0 
0 
0 
0 
0 
0 
0 
0 
0 
0 
0 
0 
0 
0 
0 
0 
0 
0 
0 
0 
0 
0 
0 
0 
0 
0 
0 
0 
0 
0 
0 
0 
0 
0 
0 
0 
0 
0 
0 
0 
0 
0 
0 
0 
0 
0 
0 
0 
0 
0 
0 
0 
0 
0 
0 
0 
0 
0 
0 
0 
0 
0 
0 
0 
0 
0 
0 
0 
0 
0 
0 
0 
0 
0 
0 
0 
0 
0 
0 
0 
0 
0 
0 
0 
0 
0 
0 
0 
0 
0 
0 
0 
0 
0 
0 
0 
0 
0 
0 
0 
0 
0 
0 
0 
0 
0 
0 
0 
0 
0 
0 
0 
0 
0 
0 
0 
0 
0 
0 
0 
0 
0 
0 
0 
0 
0 
0 
0 
0 
0 
0 
0 
0 
0 
0 
0 
0 
0 
0 
0 
0 
0 
0 
0 
0 
0 
0 
0 
0 
0 
0 
0 
0 
0 
0 
0 
0 
0 
0 
0 
0 
0 
0 
0 
0 
0 
0 
0 
0 
0 
0 
0 
0 
0 
0 
0 
0 
0 
0 
0 
0 
0 
0 
0 
0 
0 
0 
0 
0 
0 
0 
0 
0 
0 
0 
0 
0 
0 
0 
0 
0 
0 
0 
0 
0 
0 
0 
0 
0 
0 
0 
0 
0 
0 
0 
0 
0 
0 
0 
0 
0 
0 
0 
0 
0 
0 
0 
0 
0 
0 
0 
0 
0 
0 
0 
0 
0 
0 
0 
0 
0 
0 
0 
0 
0 
0 
0 
0 
0 
0 
0 
0 
0 
0 
0 
0 
0 
0 
0 
0 
0 
0 
0 
0 
0 
0 
0 
0 
0 
0 
0 
0 
0 
0 
0 
0 
0 
0 
0 
0 
0 
0 
0 
0 
0 
0 
0 
0 
0 
0 
0 
0 
0 
0 
0 
0 
0 
0 
0 
0 
0 
0 
0 
0 
0 
0 
0 
0 
0 
0 
0 
0 
0 
0 
0 
0 
0 
0 
0 
0 
0 
0 
0 
0 
0 
0 
0 
0 
0 
0 
0 
0 
0 
0 
0 
0 
0 
0 
0 
0 
0 
0 
0 
0 
0 
0 
0 
0 
0 
0 
0 
0 
0 
0 
0 
0 
0 
0 
0 
0 
0 
0 
0 
0 
0 
0 
0 
0 
0 
0 
0 
0 
0 
0 
0 
0 
0 
0 
0 
0 
0 
0 
0 
0 
0 
0 
0 
0 
0 
0 
0 
0 
0 
0 
0 
0 
0 
0 
0 
0 
0 
0 
0 
0 
0 
0 
0 
0 
0 
0 
0 
0 
0 
0 
0 
0 
0 
0 
0 
0 
0 
0 
0 
0 
0 
0 
0 
0 
0 
0 
0 
0 
0 
0 
0 
0 
0 
0 
0 
0 
0 
0 
0 
0 
0 
0 
0 
0 
0 
0 
0 
0 
0 
0 
0 
0 
0 
0 
0 
0 
0 
0 
0 
0 
0 
0 
0 
0 
0 
0 
0 
0 
0 
0 
0 
0 
0 
0 
0 
0 
0 
0 
0 
0 
0 
0 
0 
0 
0 
0 
0 
0 
0 
0 
0 
0 
0 
0 
0 
0 
0 
0 
0 
0 
0 
0 
0 
0 
0 
0 
0 
0 
0 
0 
0 
0 
0 
0 
0 
0 
0 
0 
0 
0 
0 
0 
0 
0 
0 
0 
0 
0 
0 
0 
0 
0 
0 
0 
0 
0 
0 
0 
0 
0 
0 
0 
0 
0 
0 
0 
0 
0 
0 
0 
0 
0 
0 
0 
0 
0 
0 
0 
0 
0 
0 
0 
0 
0 
0 
0 
0 
0 
0 
0 
0 
0 
0 
0 
0 
0 
0 
0 
0 
0 
0 
0 
0 
0 
0 
0 
0 
0 
0 
0 
0 
0 
0 
0 
0 
0 
0 
0 
0 
0 
0 
0 
0 
0 
0 
0 
0 
0 
0 
0 
0 
0 
0 
0 
0 
0 
0 
0 
0 
0 
0 
0 
0 
0 
0 
0 
0 
0 
0 
0 
0 
0 
0 
0 
0 
0 
0 
0 
0 
0 
0 
0 
0 
0 
0 
0 
0 
0 
0 
0 
0 
0 
0 
0 
0 
0 
0 
0 
0 
0 
0 
0 
0 
0 
0 
0 
0 
0 
0 
0 
0 
0 
0 
0 
0 
0 
0 
0 
0 
0 
0 
0 
0 
0 
0 
0 
0 
0 
0 
0 
0 
0 
0 
0 
0 
0 
0 
0 
0 
0 
0 
0 
0 
0 
0 
0 
0 
0 
0 
0 
0 
0 
0 
0 
0 
0.02694395556 
0.02467552715 
0.0295669514 
0.02884306829 
0.02854077204 
0.5260224882 
0.02774545218 
0.02593430989 
0.03497762726 
0.0350701436 
0.03361137246 
0.1066548514 
0.0363434017 
0.03802842099 
0.03916691754 
0.04038324277 
0.07399893443 
0.04715159615 
0.04341575788 
0.0439386347 
0.04283246932 
0.6126098376 
0.0429557831 
0.04870272812 
0.0455644466 
0.04384722881 
0.04055438811 
0.04544400161 
0.0438252676 
0.04384267764 
0.02832269854 
0.03231774819 
0.03164848935 
0.03555815865 
0.9820984662 
0.03220024119 
0.03849061343 
0.03117827238 
0.03172543827 
0.04016077294 
0.04139791892 
0.04332938829 
0.04445225805 
0.04191635052 
0.03961468057 
1.046513742 
0.03892631403 
0.04004757638 
0.03913760265 
0.03931086652 
0.03573125519 
0.03788994584 
0.02646927964 
0.0274718002 
0.03061500826 
0.03007957738 
0.02566909903 
0.03586800005 
0.03308428931 
0.03872005186 
0.03948760375 
0.03378257393 
0.08465173865 
0.03747261212 
0.03490364703 
0.03658042829 
0.0371653886 
0.05936352665 
0.039204858 
0.02877029721 
0.7489355002 
0.02450107741 
0.02935790377 
0.028935694 
0.02580109206 
0.02622415931 
0.03104423707 
0.02697295707 
0.04942827753 
0.04930973813 
0.05142443501 
0.04950802369 
0.05022268315 
0.02458540445 
0.0218315658 
0.02136278999 
0.02334536363 
0.02313032892 
0.02293229748 
0.02394816074 
0.0237787628 
0.065935286 
0.02753994276 
0.02492794317 
0.02858208397 
0.02393708691 
0.02402381811 
0.03001957331 
0.02931768219 
0.02443579257 
0.03222829052 
0.03350888678 
0.1082842358 
0.03758188511 
0.05787601501 
0.03637937492 
0.02689048505 
0.05938083612 
0.05608003757 
0.05676243099 
0.05695036445 
0.03388180435 
0.4754685148 
0.03580759633 
0.03833789913 
0.03387249629 
0.03423306357 
0.0282140378 
0.02837172005 
0.03318997533 
0.04953333024 
0.02693903601 
0.04597939694 
0.04649311259 
0.02318300015 
0.02393487958 
0.0239740573 
0.02707653757 
0.0246445746 
0.02408431225 
0.02320246334 
0.0244937505 
0.02681311662 
0.02935256688 
0.4594554615 
0.02851997301 
0.02804417099 
0.05596644939 
0.05956982046 
0.05556239108 
0.05958355565 
0.06123422691 
0.06233718474 
0.03102808725 
0.0329762394 
0.0336516246 
0.0316929614 
0.03271150435 
0.02462319724 
0.03208610452 
0.05021270292 
0.05194066804 
0.05179262655 
0.04941375582 
1.134215139 
0.04845764716 
0.05709305856 
0.05825754149 
0.06492793938 
0.0647996022 
0.06283527251 
0.03022305522 
0.06097694915 
0.05927841069 
0.05796489724 
0.0567975163 
0.06127290324 
0.1451749213 
0.057479755 
0.05607111826 
0.05634904794 
0.05152648787 
0.05339911449 
0.04796608613 
0.04813384102 
0.05368032127 
0.04972491241 
0.05669604978 
0.05557372557 
0.05766023608 
0.05747920085 
0.03559667008 
0.03008428563 
0.03151521456 
0.03372696975 
0.03302352518 
0.02850178999 
0.02926549808 
0.03051897144 
0.03218242425 
0.03356361006 
0.03102479974 
0.03248674073 
0.03371577027 
0.03553848597 
0.04925473803 
0.05259997763 
0.04992857625 
0.04618919373 
0.05581286163 
0.04925462839 
0.0472042372 
0.04686513186 
0.143008707 
0.04422230868 
0.04585003009 
0.0504965609 
0.04322797782 
1.044740611 
0.04363464661 
0.04613414765 
0.04621194047 
0.02893605228 
0.03123170994 
0.02944528203 
0.02943188529 
0.02397645545 
0.02857793313 
0.05065090853 
0.02853313102 
0.02683284543 
0.02768561523 
0.03162526915 
0.02867601326 
0.03081814449 
0.0562579642 
0.06075119656 
0.06394902108 
0.06580400356 
0.06461752165 
0.02817101459 
0.02439298064 
0.02304252105 
0.02343075782 
0.02327859142 
0.02351411217 
0.02235331044 
0.02236997096 
0.02141655439 
0.02411462139 
0.02569373606 
0.02681501813 
0.04494597951 
0.04765836692 
0.04698577442 
0.6777074093 
0.04385416671 
0.04519073751 
0.05128620583 
0.05612148087 
0.04002107593 
0.03739474999 
0.03564909312 
0.03790722743 
0.0392883569 
0.04135822274 
0.04266058547 
0.03886549898 
0.03872687352 
0.0367252461 
0.03110588699 
0.03782148853 
0.03728872701 
0.03837901893 
0.03365010532 
0.02456246855 
0.02676549895 
0.02361617996 
0.02386454407 
0.02632161444 
0.02626810531 
0.02492316164 
0.02256621637 
0.02316149944 
0.06226665076 
0.1055093831 
0.07331921445 
0.1139591163 
0.06883456559 
0.07138015035 
0.06725435425 
0.05932721275 
0.06000807899 
0.06517071332 
1.074903206 
0.05086932579 
0.05189225275 
0.05325148281 
0.04868217044 
0.04742429988 
0.05520478231 
0.0570368997 
0.05230351786 
0.05162501317 
0.04026328021 
0.04180374209 
0.03813866213 
0.04065592432 
0.03873568355 
0.03997979752 
0.1074815645 
0.04944379556 
0.05259498578 
0.05473294026 
0.04816262457 
0.05640252899 
0.02620743978 
0.02901994888 
0.03053934516 
0.02959209674 
0.5615403453 
0.09347219608 
0.0205159506 
0.02331182975 
0.02209160364 
0.02465244293 
0.02413149956 
0.05589447318 
0.05082729455 
0.05559577519 
0.05231300505 
0.07486366018 
0.05177436987 
0.05340232029 
0.05850953024 
0.9072982618 
0.0492427716 
0.0499829026 
0.05473653695 
0.05819135476 
0.06360157308 
0.05749582187 
0.06047200135 
0.06485207904 
0.06126046024 
0.03410228865 
0.0337477718 
0.03430276754 
0.03692066931 
0.0355490225 
0.03128631847 
0.02773929109 
0.03482957591 
0.06816732468 
0.06881826077 
0.02471394717 
0.02714914987 
1.57844992 
0.02697793246 
0.02869236785 
0.02821544393 
0.02644784611 
0.02233499087 
0.02445185934 
0.03839630535 
0.04082242916 
0.03675363205 
0.03714822714 
0.5911986217 
0.03298400723 
0.4586531377 
0.03532484386 
0.03468008795 
0.0354789499 
1.263846377 
0.03461748213 
0.03496793948 
0.03213474894 
0.02695263118 
0.02675471042 
0.02589514615 
0.02359512303 
0.02205525165 
0.02260516317 
0.027791269 
0.02473486384 
0.02929127089 
0.02952990074 
0.02957863086 
0.02891018731 
0.03034094677 
0.02264412746 
0.02452328765 
0.02038417435 
0.5897124337 
0.02648803882 
0.04821824904 
0.0441046359 
0.0456905298 
0.04552873984 
0.04799428925 
0.04801279104 
0.03808840093 
0.04126584854 
0.03992686233 
0.03992162293 
0.04525370757 
0.05797635249 
0.06553341198 
0.06040538513 
0.06197036073 
0.05946924119 
0.05895971939 
0.05648503904 
0.0444741843 
0.04346564104 
0.0425700719 
0.04252303784 
0.4087621313 
0.04089204175 
0.5955872129 
0.06066007363 
0.06417247848 
0.5435627496 
0.06063317909 
0.0308276232 
0.03233866719 
0.03092500932 
0.03133140884 
0.03547660962 
0.03350811851 
0.0347543715 
0.03176143093 
0.03128822151 
0.05258917274 
0.0603936048 
0.05341563224 
0.05215115245 
0.04925431199 
0.05441278704 
0.06343058211 
0.06058915163 
0.05873749551 
0.06057360316 
0.05623736134 
0.05850840312 
0.060435545 
0.06037499409 
0.06152203103 
0.06685067298 
0.06506686374 
0.067869098 
0.06920180219 
0.06468984009 
0.03232954576 
0.03459242816 
0.03620739943 
0.03256643004 
0.1219181162 
0.036329661 
0.03313340384 
0.03552219261 
0.03558287031 
0.03044677959 
1.086011305 
0.0333337602 
0.03130002451 
0.03215569882 
0.03354738531 
0.05157357209 
0.04697061109 
0.04636153769 
0.04909726659 
0.0460571807 
0.04882014481 
0.04494244135 
0.04676527736 
0.04223315541 
0.04032447508 
0.04362053379 
0.04179326097 
0.04238834408 
0.04007904212 
0.04567370921 
0.05095216658 
0.06007361584 
0.05498795553 
0.05551325783 
0.05422217838 
0.05297491235 
0.05552408568 
0.05343743216 
0.06738953562 
0.04635670899 
0.02442487088 
0.02319748414 
0.09140419176 
0.04193963842 
0.02434522771 
0.02381086305 
0.02001964115 
0.02409207134 
0.05318401306 
0.02280840808 
0.9573268308 
0.02462384561 
0.04426851108 
0.04656356557 
0.6009514192 
0.0480798921 
0.04419041638 
0.04522920471 
0.04482055546 
0.04634230871 
0.04663912228 
0.04664305751 
0.04607490063 
0.02819332709 
0.03139355522 
0.0268550169 
0.03072697611 
0.02655634413 
0.02966114053 
0.03036516249 
0.03216425588 
0.02996269804 
0.05727121698 
0.06582033284 
0.06114020824 
0.1060063673 
0.04200173438 
0.6066553927 
0.04278531322 
0.04172290267 
0.04286347801 
0.02917299829 
0.0886624185 
0.03032548115 
0.03147087465 
0.02906338385 
0.02959475681 
0.03048381886 
0.05265822236 
0.0523710692 
0.05371489942 
0.05312117072 
0.04968922589 
0.05093335143 
0.04631216697 
0.0460265844 
0.04603682031 
0.04798097183 
0.02302341063 
0.02801540135 
0.02409975232 
0.0286995204 
0.02593966096 
0.02637045444 
0.02793088521 
0.02632714519 
0.0254180331 
0.02559637323 
0.03121904425 
0.7381664972 
0.02945033609 
0.03059930864 
0.02768383804 
0.03296236026 
0.03002181382 
0.03139456279 
0.03026641995 
0.0582763412 
0.02890797336 
0.03090147536 
0.03216572679 
0.03379802538 
0.03268413765 
0.03122726019 
0.05895625349 
0.06050879556 
0.05814603417 
0.07396376865 
0.02403424039 
0.05522187397 
0.06542332401 
0.06039491503 
0.05861309583 
0.05628569936 
0.01983923789 
0.02370325926 
0.02044434893 
0.02171751471 
0.7620305253 
0.02124610458 
0.02549299542 
0.02650672814 
0.02401321818 
0.3638322694 
0.02623573395 
0.02266961806 
0.02292970996 
0.02483860442 
0.02510231023 
0.02408380415 
0.02258847751 
0.02203658121 
0.02190493881 
0.7338335819 
0.02152759959 
0.02529652899 
0.02206337871 
0.02346161264 
0.02155348794 
0.02708664054 
0.02327336202 
0.02873573234 
0.6543103735 
0.02413932105 
0.03126707247 
0.648806391 
0.0351468828 
0.03641614923 
0.03387495739 
0.03165462223 
0.06212348016 
0.06570868352 
0.05708745912 
0.07098985443 
0.6562475799 
0.06433853448 
0.06602023933 
0.06736489738 
0.06861841862 
0.03888367465 
0.04164493653 
0.04048758462 
0.6423892862 
0.03888355395 
0.03526894211 
0.03467281118 
0.03805831873 
0.02346056193 
0.02383374958 
0.02928344503 
0.02633318255 
0.02528216978 
0.4931112455 
0.02805231848 
0.02983640274 
0.02961116092 
0.02617476573 
0.02605740161 
0.0286672468 
0.7015967806 
0.8409584016 
0.05614246987 
0.02907301709 
0.04820985303 
0.04600622747 
0.04966076877 
0.0475230807 
0.04272117425 
0.04255580641 
0.04581950283 
0.04514289672 
0.04043112003 
0.04714999077 
0.04876870218 
0.04393672909 
0.03149178781 
0.03203723498 
0.03502109669 
0.03225103937 
0.5120610305 
0.03581091808 
0.03511470903 
0.03347668489 
0.04305627928 
0.04108322046 
0.03635402979 
0.03809421726 
0.02919337537 
0.04362421213 
0.04142387036 
0.04368840595 
0.04869154289 
0.04963257079 
0.02671921617 
0.02843128936 
0.02545270909 
0.05258186693 
0.03126599959 
0.02489647879 
0.5037660936 
0.02796376278 
0.02364908712 
0.02740096307 
0.04152715202 
0.04588203787 
1.214398533 
0.04189356902 
0.04293398119 
0.03534272176 
0.03760615118 
0.03846312589 
0.036759896 
0.03705899703 
0.0426886273 
0.04360057718 
0.04167120956 
0.5831265905 
0.04246603093 
0.02297020364 
0.03865224061 
0.04113072417 
0.03896555167 
0.04009013796 
0.04378619789 
0.04156187718 
0.03883183289 
0.03448249811 
0.03589810615 
0.03522932108 
0.03667467827 
0.03902035971 
0.03709481804 
0.03886090657 
0.03924540662 
0.6550774907 
0.02555577787 
0.02958622163 
0.02482629796 
0.02767125004 
0.02554657994 
0.02843838143 
0.02565684175 
0.02538746093 
0.02250014119 
0.02389416035 
0.05082986259 
0.05466972533 
0.05037203778 
0.04589144075 
0.0881225262 
0.05267869317 
0.06660513583 
0.06048790168 
0.0707025778 
0.05168279535 
0.06227598899 
0.06312410978 
0.06100816508 
0.0661282252 
0.0653090807 
0.04930750632 
0.05051662316 
0.04827472846 
0.05031514751 
0.05123616273 
0.05381273328 
0.04844492006 
0.03552971665 
0.03929177248 
0.04392517048 
0.03995537915 
0.03779019815 
0.03870715756 
0.04234074902 
0.08373716669 
0.04161652485 
0.0439250811 
0.05003000894 
0.04420861709 
0.1330970829 
0.04689014142 
0.04676441818 
0.04468829754 
0.04106413844 
0.04064328465 
0.0308878705 
0.0285954747 
0.02922055059 
0.03311835994 
0.03191988973 
0.02298473344 
0.02244514302 
0.02278139003 
0.02669618236 
0.02201582553 
0.0217454655 
0.02207907667 
0.02236372124 
0.02582712563 
0.02341670714 
0.02187745214 
0.03792916906 
0.03605293708 
0.03792348498 
0.04859160462 
0.04409130752 
0.9255373909 
0.05345918892 
0.07968152269 
0.04273780408 
0.04104536748 
0.03978440235 
0.06468278909 
0.06268464165 
0.05692565246 
0.06481749609 
0.06074426478 
0.06624599452 
0.04383881013 
0.02117871659 
0.02252717791 
0.0230962613 
0.02453513609 
0.02475485917 
0.02217737317 
0.02872452778 
0.02832226391 
0.03606201367 
0.034986089 
0.02970229994 
0.02813488674 
0.02932118904 
0.02705514995 
0.02307691836 
0.02403498524 
0.02382040384 
0.05669323437 
0.02108738552 
0.02249127335 
0.03196510878 
0.02726400822 
0.0626015808 
0.0505640418 
0.04268592525 
0.02449080331 
0.02750314996 
0.03902748763 
0.04056563726 
0.03822968777 
0.03703809963 
0.0333952833 
0.03592108143 
0.03512399217 
0.03794489051 
0.04265642176 
0.03564763392 
0.03604576889 
0.03608101096 
0.04092771173 
0.03547753164 
0.04087188187 
0.02493969934 
0.02546451426 
0.02171962898 
0.0259822911 
0.05887030148 
0.05337205211 
0.0446068424 
0.0465195163 
0.05335022331 
0.05421604351 
0.06144130406 
0.02501350896 
0.02655493485 
0.02409478456 
0.01971908955 
0.02427136432 
0.0297787242 
0.02482278835 
0.02632838836 
0.0249786018 
0.03008029727 
0.03709339928 
0.03542980183 
0.03561480843 
0.03341443509 
0.03432171375 
0.03564379223 
0.03751184205 
0.0294511626 
0.03597100523 
0.03261889581 