# vtk DataFile Version 3.0
MOAB 4.1.0pre
ASCII
DATASET UNSTRUCTURED_GRID
POINTS 3146 double
0 1 1
10 1 1
10 -1 1
0 -1 1
0 -0.8 1
0 -0.6 1
0 -0.4 1
0 -0.2 1
0 0 1
0 0.2 1
0 0.4 1
0 0.6 1
0 0.8 1
10 0.8 1
10 0.6 1
10 0.4 1
10 0.2 1
10 0 1
10 -0.2 1
10 -0.4 1
10 -0.6 1
10 -0.8 1
9.6 -1 1
9.2 -1 1
8.8 -1 1
8.4 -1 1
8 -1 1
7.6 -1 1
7.2 -1 1
6.8 -1 1
6.4 -1 1
6 -1 1
5.6 -1 1
5.2 -1 1
4.8 -1 1
4.4 -1 1
4 -1 1
3.6 -1 1
3.2 -1 1
2.8 -1 1
2.4 -1 1
2 -1 1
1.6 -1 1
1.2 -1 1
0.8 -1 1
0.4 -1 1
0.4 1 1
0.8 1 1
1.2 1 1
1.6 1 1
2 1 1
2.4 1 1
2.8 1 1
3.2 1 1
3.6 1 1
4 1 1
4.4 1 1
4.8 1 1
5.2 1 1
5.6 1 1
6 1 1
6.4 1 1
6.8 1 1
7.2 1 1
7.6 1 1
8 1 1
8.4 1 1
8.8 1 1
9.2 1 1
9.6 1 1
10 -1 -1
10 -1 0.8
10 -1 0.6
10 -1 0.4
10 -1 0.2
10 -1 0
10 -1 -0.2
10 -1 -0.4
10 -1 -0.6
10 -1 -0.8
10 1 -1
10 1 -0.8
10 1 -0.6
10 1 -0.4
10 1 -0.2
10 1 0
10 1 0.2
10 1 0.4
10 1 0.6
10 1 0.8
0 1 -1
0 -1 -1
0 0.8 -1
0 0.6 -1
0 0.4 -1
0 0.2 -1
0 0 -1
0 -0.2 -1
0 -0.4 -1
0 -0.6 -1
0 -0.8 -1
0 -1 -0.8
0 -1 -0.6
0 -1 -0.4
0 -1 -0.2
0 -1 0
0 -1 0.2
0 -1 0.4
0 -1 0.6
0 -1 0.8
0 1 0.8
0 1 0.6
0 1 0.4
0 1 0.2
0 1 0
0 1 -0.2
0 1 -0.4
0 1 -0.6
0 1 -0.8
0 0.8 -0.8
0 0.6 -0.8
0 0.4 -0.8
0 0.2 -0.8
0 1.387778781e-17 -0.8
0 -0.2 -0.8
0 -0.4 -0.8
0 -0.6 -0.8
0 -0.8 -0.8
0 0.8 -0.6
0 0.6 -0.6
0 0.4 -0.6
0 0.2 -0.6
0 2.775557562e-17 -0.6
0 -0.2 -0.6
0 -0.4 -0.6
0 -0.6 -0.6
0 -0.8 -0.6
0 0.8 -0.4
0 0.6 -0.4
0 0.4 -0.4
0 0.2 -0.4
0 -2.775557562e-17 -0.4
0 -0.2 -0.4
0 -0.4 -0.4
0 -0.6 -0.4
0 -0.8 -0.4
0 0.8 -0.2
0 0.6 -0.2
0 0.4 -0.2
0 0.2 -0.2
0 0 -0.2
0 -0.2 -0.2
0 -0.4 -0.2
0 -0.6 -0.2
0 -0.8 -0.2
0 0.8 0
0 0.6 0
0 0.4 0
0 0.2 1.110223025e-16
0 0 0
0 -0.2 0
0 -0.4 0
0 -0.6 0
0 -0.8 1.110223025e-16
0 0.8 0.2
0 0.6 0.2
0 0.4 0.2
0 0.2 0.2
0 0 0.2
0 -0.2 0.2
0 -0.4 0.2
0 -0.6 0.2
0 -0.8 0.2
0 0.8 0.4
0 0.6 0.4
0 0.4 0.4
0 0.2 0.4
0 0 0.4
0 -0.2 0.4
0 -0.4 0.4
0 -0.6 0.4
0 -0.8 0.4
0 0.8 0.6
0 0.6 0.6
0 0.4 0.6
0 0.2 0.6
0 0 0.6
0 -0.2 0.6
0 -0.4 0.6
0 -0.6 0.6
0 -0.8 0.6
0 0.8 0.8
0 0.6 0.8
0 0.4 0.8
0 0.2 0.8
0 0 0.8
0 -0.2 0.8
0 -0.4 0.8
0 -0.6 0.8
0 -0.8 0.8
0.4 -1 -1
0.8 -1 -1
1.2 -1 -1
1.6 -1 -1
2 -1 -1
2.4 -1 -1
2.8 -1 -1
3.2 -1 -1
3.6 -1 -1
4 -1 -1
4.4 -1 -1
4.8 -1 -1
5.2 -1 -1
5.6 -1 -1
6 -1 -1
6.4 -1 -1
6.8 -1 -1
7.2 -1 -1
7.6 -1 -1
8 -1 -1
8.4 -1 -1
8.8 -1 -1
9.2 -1 -1
9.6 -1 -1
0.4 -1 0.8
0.4 -1 0.6
0.4 -1 0.4
0.4 -1 0.2
0.4 -1 -1.734723476e-17
0.4 -1 -0.2
0.4 -1 -0.4
0.4 -1 -0.6
0.4 -1 -0.8
0.8 -1 0.8
0.8 -1 0.6
0.8 -1 0.4
0.8 -1 0.2
0.8 -1 2.081668171e-17
0.8 -1 -0.2
0.8 -1 -0.4
0.8 -1 -0.6
0.8 -1 -0.8
1.2 -1 0.8
1.2 -1 0.6
1.2 -1 0.4
1.2 -1 0.2
1.2 -1 0
1.2 -1 -0.2
1.2 -1 -0.4
1.2 -1 -0.6
1.2 -1 -0.8
1.6 -1 0.8
1.6 -1 0.6
1.6 -1 0.4
1.6 -1 0.2
1.6 -1 -1.387778781e-17
1.6 -1 -0.2
1.6 -1 -0.4
1.6 -1 -0.6
1.6 -1 -0.8
2 -1 0.8
2 -1 0.6
2 -1 0.4
2 -1 0.2
2 -1 2.775557562e-17
2 -1 -0.2
2 -1 -0.4
2 -1 -0.6
2 -1 -0.8
2.4 -1 0.8
2.4 -1 0.6
2.4 -1 0.4
2.4 -1 0.2
2.4 -1 0
2.4 -1 -0.2
2.4 -1 -0.4
2.4 -1 -0.6
2.4 -1 -0.8
2.8 -1 0.8
2.8 -1 0.6
2.8 -1 0.4
2.8 -1 0.2
2.8 -1 0
2.8 -1 -0.2
2.8 -1 -0.4
2.8 -1 -0.6
2.8 -1 -0.8
3.2 -1 0.8
3.2 -1 0.6
3.2 -1 0.4
3.2 -1 0.2
3.2 -1 -2.775557562e-17
3.2 -1 -0.2
3.2 -1 -0.4
3.2 -1 -0.6
3.2 -1 -0.8
3.6 -1 0.8
3.6 -1 0.6
3.6 -1 0.4
3.6 -1 0.2
3.6 -1 0
3.6 -1 -0.2
3.6 -1 -0.4
3.6 -1 -0.6
3.6 -1 -0.8
4 -1 0.8
4 -1 0.6
4 -1 0.4
4 -1 0.2
4 -1 0
4 -1 -0.2
4 -1 -0.4
4 -1 -0.6
4 -1 -0.8
4.4 -1 0.8
4.4 -1 0.6
4.4 -1 0.4
4.4 -1 0.2
4.4 -1 2.775557562e-17
4.4 -1 -0.2
4.4 -1 -0.4
4.4 -1 -0.6
4.4 -1 -0.8
4.8 -1 0.8
4.8 -1 0.6
4.8 -1 0.4
4.8 -1 0.2
4.8 -1 0
4.8 -1 -0.2
4.8 -1 -0.4
4.8 -1 -0.6
4.8 -1 -0.8
5.2 -1 0.8
5.2 -1 0.6
5.2 -1 0.4
5.2 -1 0.2
5.2 -1 0
5.2 -1 -0.2
5.2 -1 -0.4
5.2 -1 -0.6
5.2 -1 -0.8
5.6 -1 0.8
5.6 -1 0.6
5.6 -1 0.4
5.6 -1 0.2
5.6 -1 0
5.6 -1 -0.2
5.6 -1 -0.4
5.6 -1 -0.6
5.6 -1 -0.8
6 -1 0.8
6 -1 0.6
6 -1 0.4
6 -1 0.2
6 -1 0
6 -1 -0.2
6 -1 -0.4
6 -1 -0.6
6 -1 -0.8
6.4 -1 0.8
6.4 -1 0.6
6.4 -1 0.4
6.4 -1 0.2
6.4 -1 0
6.4 -1 -0.2
6.4 -1 -0.4
6.4 -1 -0.6
6.4 -1 -0.8
6.8 -1 0.8
6.8 -1 0.6
6.8 -1 0.4
6.8 -1 0.2
6.8 -1 0
6.8 -1 -0.2
6.8 -1 -0.4
6.8 -1 -0.6
6.8 -1 -0.8
7.2 -1 0.8
7.2 -1 0.6
7.2 -1 0.4
7.2 -1 0.2
7.2 -1 0
7.2 -1 -0.2
7.2 -1 -0.4
7.2 -1 -0.6
7.2 -1 -0.8
7.6 -1 0.8
7.6 -1 0.6
7.6 -1 0.4
7.6 -1 0.2
7.6 -1 0
7.6 -1 -0.2
7.6 -1 -0.4
7.6 -1 -0.6
7.6 -1 -0.8
8 -1 0.8
8 -1 0.6
8 -1 0.4
8 -1 0.2
8 -1 0
8 -1 -0.2
8 -1 -0.4
8 -1 -0.6
8 -1 -0.8
8.4 -1 0.8
8.4 -1 0.6
8.4 -1 0.4
8.4 -1 0.2
8.4 -1 0
8.4 -1 -0.2
8.4 -1 -0.4
8.4 -1 -0.6
8.4 -1 -0.8
8.8 -1 0.8
8.8 -1 0.6
8.8 -1 0.4
8.8 -1 0.2
8.8 -1 0
8.8 -1 -0.2
8.8 -1 -0.4
8.8 -1 -0.6
8.8 -1 -0.8
9.2 -1 0.8
9.2 -1 0.6
9.2 -1 0.4
9.2 -1 0.2
9.2 -1 0
9.2 -1 -0.2
9.2 -1 -0.4
9.2 -1 -0.6
9.2 -1 -0.8
9.6 -1 0.8
9.6 -1 0.6
9.6 -1 0.4
9.6 -1 0.2
9.6 -1 0
9.6 -1 -0.2
9.6 -1 -0.4
9.6 -1 -0.6
9.6 -1 -0.8
9.6 1 -1
9.2 1 -1
8.8 1 -1
8.4 1 -1
8 1 -1
7.6 1 -1
7.2 1 -1
6.8 1 -1
6.4 1 -1
6 1 -1
5.6 1 -1
5.2 1 -1
4.8 1 -1
4.4 1 -1
4 1 -1
3.6 1 -1
3.2 1 -1
2.8 1 -1
2.4 1 -1
2 1 -1
1.6 1 -1
1.2 1 -1
0.8 1 -1
0.4 1 -1
10 -0.8 -1
10 -0.6 -1
10 -0.4 -1
10 -0.2 -1
10 0 -1
10 0.2 -1
10 0.4 -1
10 0.6 -1
10 0.8 -1
0.4 -0.8 -1
0.4 -0.6 -1
0.4 -0.4 -1
0.4 -0.2 -1
0.4 1.734723476e-17 -1
0.4 0.2 -1
0.4 0.4 -1
0.4 0.6 -1
0.4 0.8 -1
0.8 -0.8 -1
0.8 -0.6 -1
0.8 -0.4 -1
0.8 -0.2 -1
0.8 -2.081668171e-17 -1
0.8 0.2 -1
0.8 0.4 -1
0.8 0.6 -1
0.8 0.8 -1
1.2 -0.8 -1
1.2 -0.6 -1
1.2 -0.4 -1
1.2 -0.2 -1
1.2 0 -1
1.2 0.2 -1
1.2 0.4 -1
1.2 0.6 -1
1.2 0.8 -1
1.6 -0.8 -1
1.6 -0.6 -1
1.6 -0.4 -1
1.6 -0.2 -1
1.6 1.387778781e-17 -1
1.6 0.2 -1
1.6 0.4 -1
1.6 0.6 -1
1.6 0.8 -1
2 -0.8 -1
2 -0.6 -1
2 -0.4 -1
2 -0.2 -1
2 -2.775557562e-17 -1
2 0.2 -1
2 0.4 -1
2 0.6 -1
2 0.8 -1
2.4 -0.8 -1
2.4 -0.6 -1
2.4 -0.4 -1
2.4 -0.2 -1
2.4 0 -1
2.4 0.2 -1
2.4 0.4 -1
2.4 0.6 -1
2.4 0.8 -1
2.8 -0.8 -1
2.8 -0.6 -1
2.8 -0.4 -1
2.8 -0.2 -1
2.8 0 -1
2.8 0.2 -1
2.8 0.4 -1
2.8 0.6 -1
2.8 0.8 -1
3.2 -0.8 -1
3.2 -0.6 -1
3.2 -0.4 -1
3.2 -0.2 -1
3.2 2.775557562e-17 -1
3.2 0.2 -1
3.2 0.4 -1
3.2 0.6 -1
3.2 0.8 -1
3.6 -0.8 -1
3.6 -0.6 -1
3.6 -0.4 -1
3.6 -0.2 -1
3.6 0 -1
3.6 0.2 -1
3.6 0.4 -1
3.6 0.6 -1
3.6 0.8 -1
4 -0.8 -1
4 -0.6 -1
4 -0.4 -1
4 -0.2 -1
4 0 -1
4 0.2 -1
4 0.4 -1
4 0.6 -1
4 0.8 -1
4.4 -0.8 -1
4.4 -0.6 -1
4.4 -0.4 -1
4.4 -0.2 -1
4.4 -2.775557562e-17 -1
4.4 0.2 -1
4.4 0.4 -1
4.4 0.6 -1
4.4 0.8 -1
4.8 -0.8 -1
4.8 -0.6 -1
4.8 -0.4 -1
4.8 -0.2 -1
4.8 0 -1
4.8 0.2 -1
4.8 0.4 -1
4.8 0.6 -1
4.8 0.8 -1
5.2 -0.8 -1
5.2 -0.6 -1
5.2 -0.4 -1
5.2 -0.2 -1
5.2 0 -1
5.2 0.2 -1
5.2 0.4 -1
5.2 0.6 -1
5.2 0.8 -1
5.6 -0.8 -1
5.6 -0.6 -1
5.6 -0.4 -1
5.6 -0.2 -1
5.6 0 -1
5.6 0.2 -1
5.6 0.4 -1
5.6 0.6 -1
5.6 0.8 -1
6 -0.8 -1
6 -0.6 -1
6 -0.4 -1
6 -0.2 -1
6 0 -1
6 0.2 -1
6 0.4 -1
6 0.6 -1
6 0.8 -1
6.4 -0.8 -1
6.4 -0.6 -1
6.4 -0.4 -1
6.4 -0.2 -1
6.4 0 -1
6.4 0.2 -1
6.4 0.4 -1
6.4 0.6 -1
6.4 0.8 -1
6.8 -0.8 -1
6.8 -0.6 -1
6.8 -0.4 -1
6.8 -0.2 -1
6.8 0 -1
6.8 0.2 -1
6.8 0.4 -1
6.8 0.6 -1
6.8 0.8 -1
7.2 -0.8 -1
7.2 -0.6 -1
7.2 -0.4 -1
7.2 -0.2 -1
7.2 0 -1
7.2 0.2 -1
7.2 0.4 -1
7.2 0.6 -1
7.2 0.8 -1
7.6 -0.8 -1
7.6 -0.6 -1
7.6 -0.4 -1
7.6 -0.2 -1
7.6 0 -1
7.6 0.2 -1
7.6 0.4 -1
7.6 0.6 -1
7.6 0.8 -1
8 -0.8 -1
8 -0.6 -1
8 -0.4 -1
8 -0.2 -1
8 0 -1
8 0.2 -1
8 0.4 -1
8 0.6 -1
8 0.8 -1
8.4 -0.8 -1
8.4 -0.6 -1
8.4 -0.4 -1
8.4 -0.2 -1
8.4 0 -1
8.4 0.2 -1
8.4 0.4 -1
8.4 0.6 -1
8.4 0.8 -1
8.8 -0.8 -1
8.8 -0.6 -1
8.8 -0.4 -1
8.8 -0.2 -1
8.8 0 -1
8.8 0.2 -1
8.8 0.4 -1
8.8 0.6 -1
8.8 0.8 -1
9.2 -0.8 -1
9.2 -0.6 -1
9.2 -0.4 -1
9.2 -0.2 -1
9.2 0 -1
9.2 0.2 -1
9.2 0.4 -1
9.2 0.6 -1
9.2 0.8 -1
9.6 -0.8 -1
9.6 -0.6 -1
9.6 -0.4 -1
9.6 -0.2 -1
9.6 0 -1
9.6 0.2 -1
9.6 0.4 -1
9.6 0.6 -1
9.6 0.8 -1
10 -0.8 0.8
10 -0.8 0.6
10 -0.8 0.4
10 -0.8 0.2
10 -0.8 1.387778781e-17
10 -0.8 -0.2
10 -0.8 -0.4
10 -0.8 -0.6
10 -0.8 -0.8
10 -0.6 0.8
10 -0.6 0.6
10 -0.6 0.4
10 -0.6 0.2
10 -0.6 2.775557562e-17
10 -0.6 -0.2
10 -0.6 -0.4
10 -0.6 -0.6
10 -0.6 -0.8
10 -0.4 0.8
10 -0.4 0.6
10 -0.4 0.4
10 -0.4 0.2
10 -0.4 -2.775557562e-17
10 -0.4 -0.2
10 -0.4 -0.4
10 -0.4 -0.6
10 -0.4 -0.8
10 -0.2 0.8
10 -0.2 0.6
10 -0.2 0.4
10 -0.2 0.2
10 -0.2 0
10 -0.2 -0.2
10 -0.2 -0.4
10 -0.2 -0.6
10 -0.2 -0.8
10 0 0.8
10 0 0.6
10 0 0.4
10 0 0.2
10 0 0
10 0 -0.2
10 0 -0.4
10 0 -0.6
10 0 -0.8
10 0.2 0.8
10 0.2 0.6
10 0.2 0.4
10 0.2 0.2
10 0.2 0
10 0.2 -0.2
10 0.2 -0.4
10 0.2 -0.6
10 0.2 -0.8
10 0.4 0.8
10 0.4 0.6
10 0.4 0.4
10 0.4 0.2
10 0.4 0
10 0.4 -0.2
10 0.4 -0.4
10 0.4 -0.6
10 0.4 -0.8
10 0.6 0.8
10 0.6 0.6
10 0.6 0.4
10 0.6 0.2
10 0.6 0
10 0.6 -0.2
10 0.6 -0.4
10 0.6 -0.6
10 0.6 -0.8
10 0.8 0.8
10 0.8 0.6
10 0.8 0.4
10 0.8 0.2
10 0.8 0
10 0.8 -0.2
10 0.8 -0.4
10 0.8 -0.6
10 0.8 -0.8
0.4 0.8 1
0.4 0.6 1
0.4 0.4 1
0.4 0.2 1
0.4 -1.734723476e-17 1
0.4 -0.2 1
0.4 -0.4 1
0.4 -0.6 1
0.4 -0.8 1
0.8 0.8 1
0.8 0.6 1
0.8 0.4 1
0.8 0.2 1
0.8 2.081668171e-17 1
0.8 -0.2 1
0.8 -0.4 1
0.8 -0.6 1
0.8 -0.8 1
1.2 0.8 1
1.2 0.6 1
1.2 0.4 1
1.2 0.2 1
1.2 0 1
1.2 -0.2 1
1.2 -0.4 1
1.2 -0.6 1
1.2 -0.8 1
1.6 0.8 1
1.6 0.6 1
1.6 0.4 1
1.6 0.2 1
1.6 -1.387778781e-17 1
1.6 -0.2 1
1.6 -0.4 1
1.6 -0.6 1
1.6 -0.8 1
2 0.8 1
2 0.6 1
2 0.4 1
2 0.2 1
2 2.775557562e-17 1
2 -0.2 1
2 -0.4 1
2 -0.6 1
2 -0.8 1
2.4 0.8 1
2.4 0.6 1
2.4 0.4 1
2.4 0.2 1
2.4 0 1
2.4 -0.2 1
2.4 -0.4 1
2.4 -0.6 1
2.4 -0.8 1
2.8 0.8 1
2.8 0.6 1
2.8 0.4 1
2.8 0.2 1
2.8 0 1
2.8 -0.2 1
2.8 -0.4 1
2.8 -0.6 1
2.8 -0.8 1
3.2 0.8 1
3.2 0.6 1
3.2 0.4 1
3.2 0.2 1
3.2 -2.775557562e-17 1
3.2 -0.2 1
3.2 -0.4 1
3.2 -0.6 1
3.2 -0.8 1
3.6 0.8 1
3.6 0.6 1
3.6 0.4 1
3.6 0.2 1
3.6 0 1
3.6 -0.2 1
3.6 -0.4 1
3.6 -0.6 1
3.6 -0.8 1
4 0.8 1
4 0.6 1
4 0.4 1
4 0.2 1
4 0 1
4 -0.2 1
4 -0.4 1
4 -0.6 1
4 -0.8 1
4.4 0.8 1
4.4 0.6 1
4.4 0.4 1
4.4 0.2 1
4.4 2.775557562e-17 1
4.4 -0.2 1
4.4 -0.4 1
4.4 -0.6 1
4.4 -0.8 1
4.8 0.8 1
4.8 0.6 1
4.8 0.4 1
4.8 0.2 1
4.8 0 1
4.8 -0.2 1
4.8 -0.4 1
4.8 -0.6 1
4.8 -0.8 1
5.2 0.8 1
5.2 0.6 1
5.2 0.4 1
5.2 0.2 1
5.2 0 1
5.2 -0.2 1
5.2 -0.4 1
5.2 -0.6 1
5.2 -0.8 1
5.6 0.8 1
5.6 0.6 1
5.6 0.4 1
5.6 0.2 1
5.6 0 1
5.6 -0.2 1
5.6 -0.4 1
5.6 -0.6 1
5.6 -0.8 1
6 0.8 1
6 0.6 1
6 0.4 1
6 0.2 1
6 0 1
6 -0.2 1
6 -0.4 1
6 -0.6 1
6 -0.8 1
6.4 0.8 1
6.4 0.6 1
6.4 0.4 1
6.4 0.2 1
6.4 0 1
6.4 -0.2 1
6.4 -0.4 1
6.4 -0.6 1
6.4 -0.8 1
6.8 0.8 1
6.8 0.6 1
6.8 0.4 1
6.8 0.2 1
6.8 0 1
6.8 -0.2 1
6.8 -0.4 1
6.8 -0.6 1
[...]
POINT_DATA 3146
SCALARS KDE_TALLY_TAG double 1
LOOKUP_TABLE default
0.3692852495 
0.1130205372 
0.1213555546 
0.3675008609 
0.3676868047 
0.3627872177 
0.3558961799 
0.3575592938 
0.349365873 
0.3535545404 
0.366499347 
0.3700875361 
0.3695307611 
0.1137625639 
0.1154048291 
0.1150391105 
0.114180323 
0.1141944218 
0.1122602223 
0.1151170287 
0.1119983848 
0.114715453 
0.1283449853 
0.1284595732 
0.1387612985 
0.1470102166 
0.1577722168 
0.1657265898 
0.1717279825 
0.1755826619 
0.1978050338 
0.2146092305 
0.2179941126 
0.2251284874 
0.2523952441 
0.2614978987 
0.2713529362 
0.2932543466 
0.2937624261 
0.3073057086 
0.3138127455 
0.3276636853 
0.3316169942 
0.3363766665 
0.3473442871 
0.3561916235 
0.3542093977 
0.3501874558 
0.3439559828 
0.3492927484 
0.328116618 
0.3229771743 
0.3039638719 
0.2911464912 
0.2866359958 
0.2719632834 
0.2558016514 
0.2402595997 
0.2278163693 
0.2280788703 
0.2041981262 
0.1972059573 
0.1882868342 
0.1733581204 
0.1617778111 
0.1614829588 
0.1490865898 
0.1332662653 
0.1303574981 
0.1160266851 
0.1072988257 
0.1159608597 
0.1157814518 
0.1129240721 
0.1173527588 
0.1097168624 
0.1168139377 
0.1143177338 
0.1120149291 
0.1178951135 
0.1141782192 
0.1173774783 
0.1148310911 
0.1147546611 
0.1182637289 
0.118588247 
0.1138793744 
0.1199738285 
0.1174767728 
0.1146336555 
0.358283891 
0.3620026022 
0.3562754527 
0.3675879861 
0.3627647196 
0.3675403638 
0.3590781647 
0.3570741711 
0.361246202 
0.3624223174 
0.3621676115 
0.3659310992 
0.3661182049 
0.3655916159 
0.347893094 
0.3755669843 
0.3650774576 
0.3542025277 
0.3737401461 
0.3557119019 
0.3661457352 
0.3514440557 
0.3746988697 
0.3932918097 
0.3672839842 
0.3684720075 
0.3648802618 
0.3560952563 
0.3603934205 
0.3613529993 
0.3572043965 
0.3673076837 
0.3672853813 
0.3623465041 
0.3653659104 
0.3522001048 
0.3580016742 
0.3648190551 
0.3670562992 
0.3642326154 
0.3581154363 
0.3534652521 
0.3643061445 
0.3705483753 
0.3626648123 
0.3526801831 
0.3620524428 
0.3600605522 
0.3544418491 
0.3590566373 
0.3567068224 
0.364049739 
0.3570953557 
0.3610026684 
0.374508395 
0.3618232164 
0.3667852037 
0.3684617047 
0.3672063226 
0.3573613839 
0.3553555938 
0.3662759847 
0.3541439705 
0.3647045338 
0.3611596487 
0.3643318516 
0.3698554646 
0.3606848291 
0.3612978026 
0.3541714096 
0.3788269734 
0.3705112016 
0.3630640679 
0.3607804135 
0.3632183573 
0.3673047525 
0.3554478343 
0.3645972579 
0.3680375758 
0.3609817852 
0.3707859167 
0.3573800369 
0.3682087229 
0.3660548378 
0.3584563646 
0.3801751532 
0.3598037801 
0.3692623093 
0.354431863 
0.3720052662 
0.3706147393 
0.3689782356 
0.3628982555 
0.3650825803 
0.3589851414 
0.3572737137 
0.3513872116 
0.3720213172 
0.3768927193 
0.3483467545 
0.3557367646 
0.3580722377 
0.34695728 
0.3610979291 
0.3689658602 
0.3698732714 
0.3558949442 
0.3639010188 
0.3632480422 
0.3719288613 
0.3684398548 
0.3598410781 
0.3536809999 
0.3510825288 
0.3331661072 
0.3141210775 
0.3062843112 
0.2893763697 
0.2819952323 
0.2744002164 
0.2561925598 
0.2374189497 
0.2352064101 
0.2255323469 
0.2072856324 
0.195997712 
0.1915996302 
0.1774857592 
0.1684348782 
0.1559879826 
0.153535437 
0.1422693221 
0.1265341132 
0.1162201713 
0.3658563274 
0.3626070785 
0.3523981585 
0.3610877842 
0.3594100739 
0.3571188427 
0.3578155096 
0.3533588392 
0.3754255096 
0.3541878031 
0.3603958295 
0.3625780042 
0.3534071388 
0.3479987507 
0.3491484442 
0.3600751742 
0.357547296 
0.3571206013 
0.3495503985 
0.3475365384 
0.3416671029 
0.3397029335 
0.3560483222 
0.3490023312 
0.3416059931 
0.3499286917 
0.3506935136 
0.3273027531 
0.3426148387 
0.3407335288 
0.3444315636 
0.3478001501 
0.352315769 
0.3377038528 
0.3398455567 
0.3467444597 
0.3260348 
0.3225878653 
0.3295970822 
0.3256766756 
0.3349159696 
0.332530755 
0.3256747105 
0.323264859 
0.3273840593 
0.3200013377 
0.3073601688 
0.3150349454 
0.3172130492 
0.3243919432 
0.3195790534 
0.3181088555 
0.3182891111 
0.3248360836 
0.2997848807 
0.308026689 
0.30172013 
0.3133407943 
0.3122424318 
0.309682941 
0.3019990712 
0.3033777174 
0.3055202114 
0.2861597603 
0.2895017588 
0.301916395 
0.2918814849 
0.2963383237 
0.3003672065 
0.2944292016 
0.2972812755 
0.299548852 
0.285506463 
0.2848996265 
0.2878099745 
0.278788202 
0.2839060149 
0.2795254697 
0.282959029 
0.289825865 
0.2853906597 
0.2675512746 
0.2663216367 
0.2673084311 
0.2577321506 
0.2723754951 
0.2696474918 
0.269162668 
0.2732954296 
0.2761235495 
0.2504502444 
0.2637094704 
0.2520641028 
0.2557247049 
0.2724355446 
0.2533388344 
0.2475470823 
0.2488946784 
0.253253214 
0.24409346 
0.2484273923 
0.2487267406 
0.2413705255 
0.2355420622 
0.2448483482 
0.2458623972 
0.240516672 
0.2384054072 
0.2253430193 
0.2372871978 
0.2318330677 
0.23272784 
0.2326463646 
0.2368331037 
0.2251562715 
0.2272634072 
0.2368561779 
0.221343861 
0.2251055914 
0.2187369556 
0.2220208479 
0.2167194631 
0.2177584485 
0.2239717433 
0.2209720522 
0.2205961378 
0.2044715578 
0.2023851733 
0.2061431609 
0.2112197106 
0.201441051 
0.2090851146 
0.2150865258 
0.2031748713 
0.2114005286 
0.1972923927 
0.1990925663 
0.197067029 
0.201146493 
0.1994221792 
0.2058542723 
0.1982080775 
0.1993949242 
0.1990495088 
0.1912383899 
0.1951191416 
0.1935464991 
0.1906340036 
0.1885763224 
0.1876690273 
0.1846778256 
0.1912210918 
0.1848157035 
0.1808936623 
0.1811202698 
0.1829392067 
0.1830873929 
0.180436533 
0.1759009961 
0.1783359572 
0.1779853551 
0.1742947068 
0.1631479786 
0.1665438095 
0.168265122 
0.170987828 
0.16370571 
0.1649412842 
0.171016136 
0.1644894074 
0.1619748781 
0.1562231466 
0.1561534283 
0.1639371061 
0.1534325231 
0.1529371324 
0.1554395334 
0.1605333575 
0.1566993411 
0.158733302 
0.1497618961 
0.1487700951 
0.1433586492 
0.1482844181 
0.1443276718 
0.1489358236 
0.1477262932 
0.1500358063 
0.1462302447 
0.1379574786 
0.1359730447 
0.1403299811 
0.1419269055 
0.1375406239 
0.1368680108 
0.1350178975 
0.1337524242 
0.140851502 
0.1336271541 
0.1329565394 
0.1236226965 
0.1312616328 
0.1361242834 
0.1309745946 
0.1269314392 
0.1313241055 
0.1253241376 
0.1228390414 
0.1214062392 
0.1231947189 
0.1219802245 
0.125393295 
0.1261092444 
0.1216425144 
0.1226357161 
0.1241796414 
0.1235701889 
0.132574194 
0.1388333984 
0.1513876849 
0.1554439728 
0.1619075504 
0.1797433207 
0.1879099165 
0.1962765738 
0.2044849345 
0.2188842785 
0.2328465703 
0.2401660155 
0.2571670603 
0.268834305 
0.2793667455 
0.2947349011 
0.3124349392 
0.3318458998 
0.3210850304 
0.3370835358 
0.3471749413 
0.3439500171 
0.3597165756 
0.1163812886 
0.1115863482 
0.116984372 
0.1125216719 
0.1126811309 
0.1174573695 
0.1097840324 
0.113820828 
0.1167327253 
0.3490453594 
0.3722088921 
0.3714426701 
0.3556895586 
0.356935185 
0.3537806505 
0.3600516629 
0.3559315607 
0.355100858 
0.3518008947 
0.3417349094 
0.3661699031 
0.3582300783 
0.3487108751 
0.3490151099 
0.3485388721 
0.3569876234 
0.3516411798 
0.3505036868 
0.3434698501 
0.3568717115 
0.3546277615 
0.350463573 
0.3450641311 
0.3492704962 
0.35317714 
0.3346139923 
0.3312983749 
0.3360083429 
0.3363109437 
0.3388753793 
0.3359288755 
0.3340560416 
0.3291152246 
0.3437868988 
0.3327149225 
0.3226611203 
0.332735395 
0.3270061625 
0.3331497028 
0.3244090534 
0.3227261702 
0.3221853728 
0.3329278772 
0.337849268 
0.3191898946 
0.3034012951 
0.3041851351 
0.3245474997 
0.3176749224 
0.3190864623 
0.3132756064 
0.3098887036 
0.3236183761 
0.313999576 
0.2908768079 
0.3109851545 
0.2998443172 
0.2999312445 
0.3023444908 
0.2962299902 
0.3060438063 
0.3081315487 
0.2906141306 
0.2914623259 
0.2977124012 
0.2887426065 
0.2905231512 
0.3005971136 
0.2898387188 
0.2900069902 
0.2914686957 
0.2827002567 
0.2861364749 
0.2843093571 
0.2764684063 
0.2827261063 
0.2801128615 
0.2818532753 
0.274513557 
0.280394929 
0.2662416893 
0.2690673953 
0.2641303537 
0.2704261098 
0.2694700213 
0.2748746482 
0.264134092 
0.2684420149 
0.2644558781 
0.2606385761 
0.2585588151 
0.259169088 
0.256457453 
0.2550988428 
0.2591590455 
0.2596914597 
0.2528728349 
0.2584539697 
0.249385076 
0.2459092522 
0.2452154485 
0.2483852307 
0.2463345391 
0.2444889506 
0.2430515257 
0.2428441798 
0.238660133 
0.240294841 
0.2297700213 
0.2318041341 
0.2343396348 
0.2364268918 
0.2363154404 
0.2316098774 
0.2319379532 
0.2379111162 
0.2230981315 
0.223168557 
0.2240981989 
0.2237873283 
0.2253899335 
0.2218026213 
0.21941326 
0.2158929911 
0.2146256187 
0.2107344757 
0.2095572121 
0.2089410973 
0.2088164812 
0.2181175714 
0.2099834128 
0.2114484579 
0.2057420313 
0.1990162897 
0.1980843721 
0.1985788682 
0.1988029127 
0.1895220379 
0.1965871829 
0.1936678727 
0.1999871949 
0.1944052732 
0.1989833177 
0.189991301 
0.1931161572 
0.1857980208 
0.1843609345 
0.1875870382 
0.184333407 
0.1912949801 
0.1889087334 
0.1813762154 
0.1791720545 
0.1788795921 
0.1792501208 
0.1745765665 
0.1752281595 
0.1750609833 
0.1751286831 
0.1769568846 
0.171000252 
0.1670142887 
0.1627414638 
0.1679851672 
0.1680934929 
0.1596333008 
0.1591747627 
0.1649754238 
0.1595770766 
0.162846658 
0.1548247474 
0.1601045993 
0.155572422 
0.1536726599 
0.1541236841 
0.1513071096 
0.1581423164 
0.1530169202 
0.159385708 
0.1464693453 
0.1539548504 
0.1468660855 
0.1504720452 
0.1497765009 
0.148183354 
0.1477921602 
0.1517655297 
0.1442575231 
0.1363872035 
0.1407063591 
0.1400634071 
0.1386404759 
0.142703268 
0.1351331404 
0.1436315621 
0.1320904405 
0.1381198361 
0.1314802828 
0.1309035655 
0.1297394865 
0.1289573672 
0.1295697751 
0.1338478029 
0.1318035772 
0.1333158479 
0.1352517523 
0.1205853146 
0.1235546197 
0.1221962338 
0.1247742608 
0.1212109296 
0.1238544328 
0.1229668802 
0.1194563611 
0.1254503028 
0.1169755189 
0.1125949387 
0.1163589411 
0.1161995192 
0.1150841143 
0.1179002261 
0.1183892514 
0.1114094237 
0.1169277543 
0.1177830582 
0.1131586653 
0.1136223988 
0.1167605856 
0.1145235636 
0.1147673406 
0.1139623285 
0.1124025302 
0.1168275098 
0.1139088931 
0.1172124906 
0.1180292363 
0.1159460864 
0.1172448036 
0.1115619332 
0.1184367929 
0.11353899 
0.117935524 
0.1152409989 
0.1182692609 
0.1108705428 
0.1137842249 
0.1146082111 
0.1177452301 
0.1232467409 
0.118910062 
0.1155009494 
0.1122045473 
0.1150935336 
0.1163454574 
0.1160536463 
0.1111356367 
0.1096433361 
0.1182368063 
0.1111672206 
0.1149521523 
0.1135478674 
0.1153910007 
0.1157373655 
0.1155324195 
0.1142272737 
0.1125406861 
0.115078365 
0.1133736935 
0.1137759894 
0.1149168999 
0.1159889706 
0.1161835994 
0.1142428774 
0.1145689718 
0.1108863613 
0.1155831066 
0.1148973666 
0.1148250125 
0.118618965 
0.1111670727 
0.1137752972 
0.1147720564 
0.119400666 
0.1115458144 
0.1107023298 
0.1201958782 
0.1122058476 
0.1223835967 
0.1174751359 
0.1130780882 
0.113886307 
0.1195503169 
0.1165460558 
0.1156056228 
0.1163455743 
0.111195089 
0.3550074617 
0.3575794111 
0.3550478579 
0.3463802621 
0.3558824895 
0.3481061396 
0.3504538587 
0.3560045058 
0.3597102979 
0.3457117329 
0.3491544778 
0.3563732369 
0.3516189262 
0.3553509153 
0.3542724617 
0.347877729 
0.3527669676 
0.3497692781 
0.3475848447 
0.3436548427 
0.3475775353 
0.3508114093 
0.334423839 
0.3468549859 
0.336052436 
0.3495383741 
0.3554967645 
0.3430486711 
0.3502621055 
0.3293280529 
0.3288845235 
0.3457647806 
0.3358538358 
0.3375430882 
0.3403530205 
0.3346707917 
0.3304045032 
0.3346800104 
0.3288547317 
0.3245127849 
0.3253325141 
0.3251645699 
0.3304729397 
0.3244884074 
0.3151277019 
0.3186257709 
0.3197071807 
0.3187137586 
0.3252959064 
0.3088932232 
0.3092800362 
0.3273219037 
0.3128206341 
0.3057353589 
0.3073142024 
0.3039864084 
0.3051891041 
0.3082897284 
0.2969482763 
0.3015664455 
0.3008726287 
0.3112441455 
0.3107910325 
0.2986950448 
0.2956125432 
0.2899370502 
0.2920330503 
0.2906977642 
0.2830115427 
0.2968398043 
0.2864158482 
0.296382565 
0.287294377 
0.2826862138 
0.289058011 
0.2811104899 
0.2806545831 
0.2868334237 
0.2802666856 
0.2867827354 
0.2701176432 
0.2709740671 
0.268521549 
0.2712476556 
0.2750463461 
0.267918585 
0.2764865732 
0.2651476554 
0.2752652197 
0.2686906134 
0.2545739561 
0.2619524311 
0.2610980612 
0.2616321362 
0.2546792326 
0.2601612534 
0.2561404886 
0.255083567 
0.2594069917 
0.251633579 
0.2405925795 
0.2415790687 
0.2505234968 
0.24506174 
0.2371241073 
0.2507987357 
0.2418784415 
0.2408122008 
0.2305683947 
0.2348950133 
0.234651917 
0.2349782932 
0.2342105394 
0.2288297698 
0.2358490835 
0.2307946907 
0.2339752698 
0.2205057756 
0.2267701472 
0.2186418887 
0.2211690909 
0.2190599184 
0.2177510691 
0.218194158 
0.2161186742 
0.2267808613 
0.2062865222 
0.2110989303 
0.211346905 
0.2026079284 
0.2111729828 
0.2048155346 
0.2037191972 
0.2125258302 
0.2145874716 
0.1973389635 
0.1989485669 
0.1998224868 
0.1904041733 
0.2025126703 
0.1925179922 
0.1940122064 
0.1957088911 
0.1966650687 
0.1842959762 
0.1840440961 
0.1834898594 
0.1891146742 
0.1876952588 
0.1892792645 
0.1901715121 
0.1833695167 
0.1905297455 
0.1816282227 
0.1819253515 
0.1744797456 
0.1745964758 
0.1682170768 
0.1797109388 
0.1842062534 
0.1787900619 
0.1738921907 
0.1635094349 
0.163285952 
0.163875892 
0.1664011458 
0.1648540057 
0.1674623729 
0.1716472698 
0.1672141801 
0.1678421999 
0.1557788544 
0.153003361 
0.1528134416 
0.1534863904 
0.150991471 
0.1515630838 
0.1580013699 
0.1572329464 
0.1581089442 
0.1491140813 
0.1436415802 
0.1416977248 
0.142827843 
0.1457073874 
0.1475564654 
0.1498679147 
0.1515779349 
0.1465999852 
0.1361631554 
0.1363536365 
0.1335316005 
0.1461311583 
0.1382338205 
0.1397178856 
0.13520005 
0.1361044658 
0.1358154275 
0.1281157771 
0.1305467959 
0.1296958729 
0.1298625316 
0.1311962839 
0.1245528148 
0.1250619456 
0.1317942306 
0.1311399847 
0.12078054 
0.1199822618 
0.1230933111 
0.120762267 
0.1212290037 
0.1210301617 
0.1241587548 
0.1228958698 
0.1273731326 
0.3561177129 
0.3432961376 
0.3727162617 
0.3548061043 
0.3594224199 
0.3641309906 
0.3683647653 
0.362801588 
0.3537082609 
0.3530807069 
0.3515471061 
0.3590562319 
0.3385168898 
0.3479032031 
0.3544282932 
0.3466283667 
0.3477642198 
0.3538178482 
0.353100608 
0.3559268346 
0.3453650807 
0.3444937943 
0.3490758679 
0.3444837293 
0.3383534897 
0.3416276501 
0.3515281818 
0.3417559839 
0.3396410256 
0.3387112597 
0.3487195418 
0.3373349176 
0.3355624557 
0.3483027138 
0.3417732606 
0.3490971663 
0.3324158857 
0.3156263369 
0.3317950435 
0.3226183675 
0.33014936 
0.3245973833 
0.3351098958 
0.3199186123 
0.3301066265 
0.3105561794 
0.31346213 
0.3247772739 
0.3140047998 
0.3321926949 
0.3172073741 
0.3251854718 
0.3144670599 
0.3097763781 
0.307056322 
0.3153391543 
0.3055338823 
0.3147752858 
0.3048330822 
0.3104960398 
0.3070151715 
0.3069315164 
0.2991661679 
0.2940852231 
0.2948063622 
0.2934897427 
0.2839884808 
0.2876344633 
0.2903565257 
0.3019430048 
0.2988003276 
0.2961055059 
0.2805121089 
0.2762705319 
0.2764092379 
0.2777567201 
0.2773415551 
0.2745884911 
0.2816929719 
0.2828302366 
0.2772296829 
0.2735560381 
0.2605168613 
0.2756750673 
0.2703032383 
0.2700153456 
0.2747361986 
0.2595630419 
0.2672623367 
0.26708733 
0.2609800463 
0.2552034047 
0.2551117639 
0.2570677789 
0.2556128792 
0.2579859819 
0.2520488823 
0.2534992366 
0.2510487462 
0.2426804093 
0.2432476827 
0.2481574827 
0.2520579432 
0.2500703919 
0.2443342881 
0.2490155776 
0.2423303648 
0.2393347616 
0.2342143891 
0.2343289106 
0.2385556975 
0.2315783729 
0.2344278195 
0.2322143258 
0.2320418622 
0.234404092 
0.2344079907 
0.2302667809 
0.2185518854 
0.2221092549 
0.2247558605 
0.2211113894 
0.216419952 
0.2248267117 
0.2257075393 
0.2262856518 
0.2104177015 
0.2084597983 
0.2102905841 
0.209465552 
0.1995970566 
0.2119474986 
0.2098532623 
0.211404717 
0.2091507483 
0.1960982683 
0.2002521842 
0.1982469342 
0.2045142035 
0.1914201964 
0.1958952859 
0.1943968557 
0.1931458994 
0.2000282107 
0.1827454749 
0.1923069021 
0.1802770633 
0.1864091879 
0.1833850713 
0.1837361316 
0.1876764751 
0.1914907192 
0.1894710518 
0.1693573757 
0.1735844736 
0.1778388252 
0.1774696751 
0.1794592758 
0.1744597026 
0.171850565 
0.174120223 
0.1760052322 
0.1639875169 
0.1654317809 
0.1720077514 
0.1651846995 
0.1699215944 
0.1668866523 
0.1665843998 
0.1649896918 
0.1624131639 
0.1596848089 
0.1580726048 
0.1640086092 
0.1577645704 
0.1640456358 
0.1573080994 
0.1567038587 
0.154991211 
0.153148336 
0.1426030483 
0.1428193642 
0.1519305181 
0.1499907454 
0.149540859 
0.1451257178 
0.1502556093 
0.1493613034 
0.1485897519 
0.1403383549 
0.1375794805 
0.1385416415 
0.1375241045 
0.1385652749 
0.1338214857 
0.1403756359 
0.1382955907 
0.1411212061 
0.1346381169 
0.1287967648 
0.1330098029 
0.1324622596 
0.1300360694 
0.1329643794 
0.1311967303 
0.13271799 
0.127062859 
0.1242351327 
0.1217228109 
0.1177325418 
0.1216601857 
0.1261971337 
0.1174276687 
0.128299207 
0.1247417366 
0.1234667276 
0.3632012209 
0.3505735318 
0.3491264146 
0.3396012114 
0.3222309639 
0.3217989589 
0.3106757684 
0.2984148507 
0.2854432218 
0.2667858007 
0.2540007737 
0.2467315172 
0.2336281427 
0.2178790569 
0.2053058174 
0.2066150294 
0.1928865213 
0.1809683508 
0.1681636002 
0.1590445036 
0.1451061097 
0.1380226457 
0.1281370362 
0.1232604317 
0.3593080272 
0.3432020682 
0.3431693046 
0.3378190895 
0.3294466152 
0.3134240942 
0.2989597285 
0.3026661213 
0.2900053063 
0.2665427764 
0.2518799272 
0.2465432713 
0.2353752826 
0.2230557139 
0.2029957817 
0.2007025943 
0.1871960158 
0.1836598862 
0.1616051919 
0.1604958036 
0.1513062949 
0.1404076716 
0.1279849934 
0.1233948 
0.3478796047 
0.3475724585 
0.339007073 
0.3498838681 
0.3290338493 
0.3188385334 
0.3069526248 
0.2944876439 
0.2934760969 
0.2697867168 
0.260939228 
0.2430367087 
0.230658301 
0.2209517626 
0.2097429477 
0.1999862253 
0.1885840511 
0.172413078 
0.1677679385 
0.1556468553 
0.1424219394 
0.1420039476 
0.1286071739 
0.1224764283 
0.3536065533 
0.3507389489 
0.3329409837 
0.3330370403 
0.3312753471 
0.3235321921 
0.3051230985 
0.2945383341 
0.2814456507 
0.2704036577 
0.2615879294 
0.2482250746 
0.2315786008 
0.2147096967 
0.2083047516 
0.1982186317 
0.1799228301 
0.1750815765 
0.1635155578 
0.1535664259 
0.1485182892 
0.1377485569 
0.1301647664 
0.1211431258 
0.3586574761 
0.3597906858 
0.3489969902 
0.3503230991 
0.3426889292 
0.3199505878 
0.3073664326 
0.2964262976 
0.2868200769 
0.2774693581 
0.2513394855 
0.2426483899 
0.2355961624 
0.2192733196 
0.2115185677 
0.1931854049 
0.1857480273 
0.1788177683 
0.1650791453 
0.1520248203 
0.1439932086 
0.1330579198 
0.1265159283 
0.120620823 
0.3465045714 
0.3484505993 
0.3403305586 
0.3410036273 
0.3242700604 
0.314436795 
0.3074032656 
0.294905527 
0.2840475255 
0.2698925354 
0.2626542129 
0.2412236475 
0.2303073461 
0.2177741083 
0.2018208438 
0.2012985133 
0.1860354596 
0.1732607362 
0.1602673817 
0.1482839787 
0.1425684905 
0.1315819277 
0.127209952 
0.1200733968 
0.367883705 
0.3555725864 
0.3429697284 
0.3305835303 
0.3273888619 
0.3245608992 
0.3064494933 
0.2842652453 
0.2824810266 
0.2683371506 
0.2583589232 
0.2552687178 
0.2375630621 
0.2196326507 
0.2001923724 
0.1948838723 
0.186285099 
0.1752084395 
0.1598054094 
0.1538983946 
0.1486820062 
0.1401139815 
0.1300225437 
0.1190707711 
0.3554806645 
0.3526046521 
0.3473344649 
0.3391481974 
0.3346658442 
0.3280847605 
0.3037563747 
0.3067465526 
0.2875065493 
0.2647999964 
0.2473510675 
0.254344263 
0.2426546077 
0.2206191474 
0.2098457608 
0.1959456377 
0.1837382066 
0.1728695879 
0.1645817476 
0.1563808707 
0.1477638821 
0.1380356306 
0.1301912187 
0.1244882972 
0.3622742543 
0.3567008769 
0.3378323814 
0.3320252618 
0.3151460518 
0.3193507073 
0.3033067628 
0.2951244845 
0.2820340453 
0.2664317919 
0.2576016171 
0.2530393418 
0.2309862316 
0.2170936602 
0.2080674126 
0.1950483939 
0.1933581294 
0.1773081178 
0.1684131776 
0.1537209035 
0.1440995423 
0.1372950993 
0.1334752673 
0.1235536168 
0.3628198456 
0.3511409013 
0.3495706051 
0.3429376397 
0.3249120778 
0.3133383445 
0.3111319762 
0.3061010225 
0.2818633039 
0.2685849668 
0.2595857923 
0.2519938883 
0.2384512814 
0.2240643571 
0.2126764459 
0.2042738511 