# vtk DataFile Version 3.0
MOAB 4.99 (Alpha)
ASCII
DATASET UNSTRUCTURED_GRID
POINTS 457 double
0 -1 1
0 1 1
0 -0.6 1
0 -0.2 1
0 0.2 1
0 0.6 1
0 1 -1
0 1 0.6
0 1 0.2
0 1 -0.2
0 1 -0.6
0 -1 -1
0 0.6 -1
0 0.2 -1
0 -0.2 -1
0 -0.6 -1
0 -1 -0.6
0 -1 -0.2
0 -1 0.2
0 -1 0.6
0 -0.4052531952 0.6719438381
0 0.001326739737 0.6398182875
0 0.4084466782 0.6730790076
0 0.671668119 0.4109975243
0 0.6409559612 0.002665308352
0 0.6741562537 -0.4067531861
0 0.4126332896 -0.6703225438
0 0.005823851008 -0.6385848783
0 -0.4033337139 -0.671818987
0 -0.6657077798 -0.40925766
0 -0.6331965555 -5.201324309e-05
0 -0.6677757402 0.4090861353
0 -0.7346057871 0.7362059947
0 0.7360229594 0.7368153064
0 0.7373579087 -0.735415146
0 -0.7338082987 -0.7362153294
0 -0.2405618544 0.2463031768
0 0.2488935914 0.2473010883
0 0.2507661259 -0.2443109294
0 -0.2398134703 -0.2452073142
0 0.004821098151 0.001021505389
3 1 1
0.375 1 1
0.75 1 1
1.125 1 1
1.5 1 1
1.875 1 1
2.25 1 1
2.625 1 1
3 -1 1
2.625 -1 1
2.25 -1 1
1.875 -1 1
1.5 -1 1
1.125 -1 1
0.75 -1 1
0.375 -1 1
3 -0.6 1
3 -0.2 1
3 0.2 1
3 0.6 1
0.5051722492 0.6423612468 1
0.9126445746 0.6436367449 1
1.305865967 0.6580484746 1
1.688419081 0.6656634151 1
2.070560737 0.6699173913 1
2.47095257 0.654958819 1
0.3045321161 -0.3321450215 1
0.3297045651 0.003954053695 1
0.3031518466 0.3391619139 1
2.496518416 -0.6444993806 1
2.089437641 -0.6484888302 1
1.696472775 -0.6606559536 1
1.310410893 -0.6601586509 1
0.9145626663 -0.6430290874 1
0.5048111999 -0.6367418762 1
2.698685229 -0.3478643401 1
2.673925788 -0.03759912285 1
2.630822662 0.307407269 1
0.6891800874 0.2413179328 1
1.117995254 0.31081986 1
1.501602224 0.3288992524 1
1.879773297 0.3413765722 1
2.251995373 0.347453633 1
0.6906986346 -0.241721174 1
2.330694409 -0.2691157534 1
1.898453339 -0.3123467399 1
1.50523074 -0.3255357202 1
1.119997336 -0.3128153358 1
0.9871659053 -0.001021893381 1
1.32151729 0.0007785871564 1
1.696158716 0.0108146455 1
2.074427116 0.0329213637 1
2.39237307 0.07621347787 1
3 -1 -1
0.375 -1 -1
0.75 -1 -1
1.125 -1 -1
1.5 -1 -1
1.875 -1 -1
2.25 -1 -1
2.625 -1 -1
3 -1 -0.6
3 -1 -0.2
3 -1 0.2
3 -1 0.6
2.471508153 -1 0.6460273584
2.068792354 -1 0.6608223542
1.687924014 -1 0.6649854989
1.307949266 -1 0.6632613651
0.9174050019 -1 0.6484799184
0.5072979902 -1 0.6414756587
0.3066313627 -1 -0.3298929865
0.3333855076 -1 0.006496285401
0.3069635043 -1 0.3403761757
0.5063175254 -1 -0.6332052894
0.9156711783 -1 -0.6380349219
1.306429657 -1 -0.6565467701
1.690791533 -1 -0.6624079911
2.086482814 -1 -0.6550911236
2.496694682 -1 -0.6507494607
2.698549156 -1 -0.3584791895
2.673951335 -1 -0.04911838862
2.630964327 -1 0.2971136723
2.250781107 -1 0.3344578894
1.876894445 -1 0.3355041419
1.499121226 -1 0.3333610368
1.120300442 -1 0.319300288
0.6949668592 -1 0.2477467145
0.6942132107 -1 -0.234766637
1.119237222 -1 -0.306801495
1.501312 -1 -0.3233970803
1.893256234 -1 -0.3180522551
2.329509523 -1 -0.279715851
2.071332166 -1 0.02258040655
1.69299873 -1 0.009530785496
1.320014408 -1 0.006932590817
0.9897464282 -1 0.006482292234
2.391307692 -1 0.06506354573
3 1 -1
2.625 1 -1
2.25 1 -1
1.875 1 -1
1.5 1 -1
1.125 1 -1
0.75 1 -1
0.375 1 -1
3 0.6 -1
3 0.2 -1
3 -0.2 -1
3 -0.6 -1
0.5051722492 -0.6423612468 -1
0.9126445746 -0.6436367449 -1
1.305865967 -0.6580484746 -1
1.688419081 -0.6656634151 -1
2.070560737 -0.6699173913 -1
2.47095257 -0.654958819 -1
0.3045321161 0.3321450215 -1
0.3297045651 -0.003954053695 -1
0.3031518466 -0.3391619139 -1
2.496518416 0.6444993806 -1
2.089437641 0.6484888302 -1
1.696472775 0.6606559536 -1
1.310410893 0.6601586509 -1
0.9145626663 0.6430290874 -1
0.5048111999 0.6367418762 -1
2.698685229 0.3478643401 -1
2.673925788 0.03759912285 -1
2.630822662 -0.307407269 -1
0.6891800874 -0.2413179328 -1
1.117995254 -0.31081986 -1
1.501602224 -0.3288992524 -1
1.879773297 -0.3413765722 -1
2.251995373 -0.347453633 -1
0.6906986346 0.241721174 -1
2.330694409 0.2691157534 -1
1.898453339 0.3123467399 -1
1.50523074 0.3255357202 -1
1.119997336 0.3128153358 -1
0.9871659053 0.001021893381 -1
1.32151729 -0.0007785871564 -1
1.696158716 -0.0108146455 -1
2.074427116 -0.0329213637 -1
2.39237307 -0.07621347787 -1
3 1 0.6
3 1 0.2
3 1 -0.2
3 1 -0.6
2.471508153 1 -0.6460273584
2.068792354 1 -0.6608223542
1.687924014 1 -0.6649854989
1.307949266 1 -0.6632613651
0.9174050019 1 -0.6484799184
0.5072979902 1 -0.6414756587
0.3066313627 1 0.3298929865
0.3333855076 1 -0.006496285401
0.3069635043 1 -0.3403761757
0.5063175254 1 0.6332052894
0.9156711783 1 0.6380349219
1.306429657 1 0.6565467701
1.690791533 1 0.6624079911
2.086482814 1 0.6550911236
2.496694682 1 0.6507494607
2.698549156 1 0.3584791895
2.673951335 1 0.04911838862
2.630964327 1 -0.2971136723
2.250781107 1 -0.3344578894
1.876894445 1 -0.3355041419
1.499121226 1 -0.3333610368
1.120300442 1 -0.319300288
0.6949668592 1 -0.2477467145
0.6942132107 1 0.234766637
1.119237222 1 0.306801495
1.501312 1 0.3233970803
1.893256234 1 0.3180522551
2.329509523 1 0.279715851
2.071332166 1 -0.02258040655
1.69299873 1 -0.009530785496
1.320014408 1 -0.006932590817
0.9897464282 1 -0.006482292234
2.391307692 1 -0.06506354573
3 0.4078020432 -0.6749386695
3 -0.002766679691 -0.6463410443
3 -0.4112057218 -0.6804751274
3 0.6738065205 0.4096535765
3 0.6392445975 0.001240977363
3 0.6700947697 -0.4102754248
3 -0.3800088874 0.6821110447
3 0.01793759988 0.6594720195
3 0.4138645449 0.6772501547
3 -0.6747109622 -0.4230382477
3 -0.6486777191 -0.04064326267
3 -0.6106821934 0.3715558838
3 0.7355793626 -0.7370428189
3 -0.7371833368 -0.740702675
3 0.7375342131 0.7373807462
3 -0.7181382162 0.7307333857
3 0.2352751843 -0.2445881183
3 -0.2727034516 -0.2738282128
3 0.2488119959 0.2685945903
3 -0.1884632912 0.3500036415
3 -0.06527557032 0.0371682853
3 -0.3571604451 0.08885126704
1.382847905 0.419354409 0.078918688
1.512703657 0.1668794006 0.1632564515
1.239435792 0.2288596034 0.4327279925
1.153616786 0.1710781753 0.165997088
1.30789721 -0.005008070264 -0.004825044423
1.499691963 0.1677078605 -0.1719100475
1.283345461 0.4421007931 -0.2248791307
1.002545476 0.3296097219 0.005863263737
1.264318585 0.6627244353 -0.004670279101
1.692998767 0.6666668057 -0.006353923585
1.692998767 0.3333335817 -0.003177056788
1.56819284 0.4425138831 -0.2281978726
0.7253351212 0.1684835851 0.009472563863
0.8992058635 -0.064827241 0.2395737022
0.5126469731 0.1849205941 0.1992238909
0.4252019525 -0.0119457785 0.01325218193
0.6620721817 -0.01033856813 -0.3284833133
0.501776576 0.2058564276 -0.1721281558
0.924711287 0.0597452037 -0.203850165
0.9060174823 0.4449999928 -0.2523384392
0.8223276138 0.2234371156 -0.5002391338
1.346586585 0.005849987268 0.3527111411
1.46151948 -0.3190177679 -0.2086981684
1.478307962 -0.1682829112 0.1499860585
1.271666527 -0.3213887513 0.01630652696
1.152963638 0.1733939648 -0.1716388166
1.328954816 -0.01671070047 -0.3339306414
1.071712375 -0.1131084189 -0.4032779634
1.101858139 -0.4564827979 -0.2355139554
2.733579159 -0.5216830969 -0.5991829038
2.674300432 -0.1946258694 -0.6282466054
1.861673117 0.004678244703 0.0008337616455
1.69257772 -0.2233438045 -0.41614151
1.7060256 -0.3369055092 0.008211300708
1.884108067 0.275662154 -0.225993976
1.20993495 0.2238710672 -0.4439044893
1.678264856 0.2034219056 -0.4462839961
1.259396553 -0.549851954 0.2416270077
1.809915423 -0.2155605704 0.4364313483
1.711367726 0.001738457475 0.3288374245
2.455195665 -0.2132536918 -0.2179357409
2.102766037 -0.3137688339 0.005528696813
2.138640642 -0.07632844895 -0.2503524721
2.26803565 -0.5005776882 -0.1671417058
2.781495094 -0.2573728859 0.07285779715
2.496546507 -0.4132493436 0.1199103221
2.678674936 -0.5390529037 -0.2009365559
2.537436962 -0.0881767422 0.01990634389
2.769908905 -0.0572325401 -0.2206646204
2.380741835 -0.3936069906 -0.4874296486
2.754520416 -0.04960199073 0.2854048014
2.383031607 -0.1611050963 0.2809549272
2.236895084 -0.5126907825 0.2478096634
2.508197308 -0.4592610002 0.5450149775
2.744637728 -0.4775494933 0.2557869256
0.822776556 -0.2270845473 -0.4852369428
0.7020758986 -0.1921640337 -0.005815658253
0.5424691439 -0.3127651215 -0.3019032776
0.2784984112 -0.2563466132 0.02361502685
0.8069620132 -0.4743821025 0.1835371852
0.7069047093 -0.7464302182 0.5132071972
0.7379179597 -0.7427873611 -0.0002078714169
1.095036149 -0.7641423345 0.2606624067
2.676486492 0.1558091193 -0.5125009418
2.304766178 0.1222333238 0.006212244742
2.137881517 0.07003407925 0.2802823782
2.266121149 0.5076519847 0.1588975936
2.444022655 0.3232415617 0.3543980122
2.150038958 0.4304296374 -0.2567894757
2.52804327 0.1915812045 -0.1429159641
1.085435152 -0.7438007593 -0.4842171371
2.063739061 0.3219355643 -0.008874365129
1.798339844 0.1997283995 0.4293933213
1.947623014 0.4595043361 0.2090283632
2.295720339 0.05337591842 0.7242236733
2.212450743 -0.2007032633 0.4966985285
1.947679877 -0.4407740831 0.2183093727
2.597417593 -0.1749093831 0.6973099709
1.629677296 0.4906087816 0.39134866
1.500994563 0.2680524588 0.5861746669
2.236869335 0.7314585447 -0.6004917622
2.071332216 0.6666668057 -0.01505360845
1.970589042 -0.02422119305 -0.4684966505
1.99624753 0.7556296587 -0.3126296997
2.386128902 -0.7609332204 -0.447163105
2.366138697 -0.772566855 -0.1074046567
1.947165966 -0.448414892 -0.2105663568
1.218020916 -0.3718079925 0.4659680724
1.534649253 -0.4490436018 0.4000443816
0.3292632401 -0.2250968665 -0.4944902658
2.661649942 0.2485611141 0.5261665583
2.738189936 0.6644791961 0.7017985582
0.9926325083 -0.3445100784 -0.01290206332
0.9858894348 -0.1278511584 0.7443723679
0.8125650287 -0.2171581089 0.5115552545
0.5841794014 -0.3157697618 0.3400400877
0.7338327765 0.4709016085 0.06918742508
0.8080136776 0.199506864 0.4789630473
0.3476029634 -0.1666586399 0.5054131746
1.270457745 0.5068500638 0.5083636045
0.7791165113 -0.4951654673 -0.1450119317
0.316557467 0.4347202182 0.3312404454
2.068560123 0.2490921766 0.719969511
2.219309807 0.1971967667 -0.4708699286
2.346963406 -0.01102780644 -0.7377060652
2.061929464 -0.3991389275 -0.4732386172
1.784462929 -0.250819236 -0.7340707779
1.034938693 0.005942922551 -0.7068126798
[...]
CELL_DATA 3125
SCALARS TALLY_TAG double 1
LOOKUP_TABLE default
0 
0 
0 
0 
0 
0 
0 
0 
0 
0 
0 
0 
0 
0 
0 
0 
0 
0 
0 
0 
0 
0 
0 
0 
0 
0 
0 
0 
0 
0 
0 
0 
0 
0 
0 
0 
0 
0 
0 
0 
0 
0 
0 
0 
0 
0 
0 
0 
0 
0 
0 
0 
0 
0 
0 
0 
0 
0 
0 
0 
0 
0 
0 
0 
0 
0 
0 
0 
0 
0 
0 
0 
0 
0 
0 
0 
0 
0 
0 
0 
0 
0 
0 
0 
0 
0 
0 
0 
0 
0 
0 
0 
0 
0 
0 
0 
0 
0 
0 
0 
0 
0 
0 
0 
0 
0 
0 
0 
0 
0 
0 
0 
0 
0 
0 
0 
0 
0 
0 
0 
0 
0 
0 
0 
0 
0 
0 
0 
0 
0 
0 
0 
0 
0 
0 
0 
0 
0 
0 
0 
0 
0 
0 
0 
0 
0 
0 
0 
0 
0 
0 
0 
0 
0 
0 
0 
0 
0 
0 
0 
0 
0 
0 
0 
0 
0 
0 
0 
0 
0 
0 
0 
0 
0 
0 
0 
0 
0 
0 
0 
0 
0 
0 
0 
0 
0 
0 
0 
0 
0 
0 
0 
0 
0 
0 
0 
0 
0 
0 
0 
0 
0 
0 
0 
0 
0 
0 
0 
0 
0 
0 
0 
0 
0 
0 
0 
0 
0 
0 
0 
0 
0 
0 
0 
0 
0 
0 
0 
0 
0 
0 
0 
0 
0 
0 
0 
0 
0 
0 
0 
0 
0 
0 
0 
0 
0 
0 
0 
0 
0 
0 
0 
0 
0 
0 
0 
0 
0 
0 
0 
0 
0 
0 
0 
0 
0 
0 
0 
0 
0 
0 
0 
0 
0 
0 
0 
0 
0 
0 
0 
0 
0 
0 
0 
0 
0 
0 
0 
0 
0 
0 
0 
0 
0 
0 
0 
0 
0 
0 
0 
0 
0 
0 
0 
0 
0 
0 
0 
0 
0 
0 
0 
0 
0 
0 
0 
0 
0 
0 
0 
0 
0 
0 
0 
0 
0 
0 
0 
0 
0 
0 
0 
0 
0 
0 
0 
0 
0 
0 
0 
0 
0 
0 
0 
0 
0 
0 
0 
0 
0 
0 
0 
0 
0 
0 
0 
0 
0 
0 
0 
0 
0 
0 
0 
0 
0 
0 
0 
0 
0 
0 
0 
0 
0 
0 
0 
0 
0 
0 
0 
0 
0 
0 
0 
0 
0 
0 
0 
0 
0 
0 
0 
0 
0 
0 
0 
0 
0 
0 
0 
0 
0 
0 
0 
0 
0 
0 
0 
0 
0 
0 
0 
0 
0 
0 
0 
0 
0 
0 
0 
0 
0 
0 
0 
0 
0 
0 
0 
0 
0 
0 
0 
0 
0 
0 
0 
0 
0 
0 
0 
0 
0 
0 
0 
0 
0 
0 
0 
0 
0 
0 
0 
0 
0 
0 
0 
0 
0 
0 
0 
0 
0 
0 
0 
0 
0 
0 
0 
0 
0 
0 
0 
0 
0 
0 
0 
0 
0 
0 
0 
0 
0 
0 
0 
0 
0 
0 
0 
0 
0 
0 
0 
0 
0 
0 
0 
0 
0 
0 
0 
0 
0 
0 
0 
0 
0 
0 
0 
0 
0 
0 
0 
0 
0 
0 
0 
0 
0 
0 
0 
0 
0 
0 
0 
0 
0 
0 
0 
0 
0 
0 
0 
0 
0 
0 
0 
0 
0 
0 
0 
0 
0 
0 
0 
0 
0 
0 
0 
0 
0 
0 
0 
0 
0 
0 
0 
0 
0 
0 
0 
0 
0 
0 
0 
0 
0 
0 
0 
0 
0 
0 
0 
0 
0 
0 
0 
0 
0 
0 
0 
0 
0 
0 
0 
0 
0 
0 
0 
0 
0 
0 
0 
0 
0 
0 
0 
0 
0 
0 
0 
0 
0 
0 
0 
0 
0 
0 
0 
0 
0 
0 
0 
0 
0 
0 
0 
0 
0 
0 
0 
0 
0 
0 
0 
0 
0 
0 
0 
0 
0 
0 
0 
0 
0 
0 
0 
0 
0 
0 
0 
0 
0 
0 
0 
0 
0 
0 
0 
0 
0 
0 
0 
0 
0 
0 
0 
0 
0 
0 
0 
0 
0 
0 
0 
0 
0 
0 
0 
0 
0 
0 
0 
0 
0 
0 
0 
0 
0 
0 
0 
0 
0 
0 
0 
0 
0 
0 
0 
0 
0 
0 
0 
0 
0 
0 
0 
0 
0 
0 
0 
0 
0 
0 
0 
0 
0 
0 
0 
0 
0 
0 
0 
0 
0 
0 
0 
0 
0 
0 
0 
0 
0 
0 
0 
0 
0 
0 
0 
0 
0 
0 
0 
0 
0 
0 
0 
0 
0 
0 
0 
0 
0 
0 
0 
0 
0 
0 
0 
0 
0 
0 
0 
0 
0 
0 
0 
0 
0 
0 
0 
0 
0 
0 
0 
0 
0 
0 
0 
0 
0 
0 
0 
0 
0 
0 
0 
0 
0 
0 
0 
0 
0 
0 
0 
0 
0 
0 
0 
0 
0 
0 
0 
0 
0 
0 
0 
0 
0 
0 
0 
0 
0 
0 
0 
0 
0 
0 
0 
0 
0 
0 
0 
0 
0 
0 
0 
0 
0 
0 
0 
0 
0 
0 
0 
0 
0 
0 
0 
0 
0 
0 
0 
0 
0 
0 
0 
0 
0 
0 
0 
0 
0 
0 
0 
0 
0 
0 
0 
0 
0 
0 
0 
0 
0 
0 
0 
0 
0 
0 
0 
0 
0 
0 
0 
0 
0 
0 
0 
0 
0 
0 
0 
0 
0 
0 
0 
0 
0 
0 
0 
0 
0 
0 
0 
0 
0 
0 
0 
0 
0 
0 
0 
0 
0 
0 
0 
0 
0 
0 
0 
0 
0 
0 
0 
0 
0 
0 
0 
0 
0 
0 
0 
0 
0 
0 
0 
0 
0 
0 
0 
0 
0 
0 
0 
0 
0 
0 
0 
0 
0 
0 
0 
0 
0 
0 
0 
0 
0 
0 
0 
0 
0 
0 
0 
0 
0 
0 
0 
0 
0 
0 
0 
0 
0 
0 
0 
0 
0 
0 
0 
0 
0 
0 
0 
0 
0 
0 
0 
0 
0 
0 
0 
0 
0 
0 
0 
0 
0 
0 
0 
0 
0 
0 
0 
0 
0 
0 
0 
0 
0 
0 
0 
0 
0 
0 
0 
0 
0 
0 
0 
0 
0 
0 
0 
0 
0 
0 
0 
0 
0 
0 
0 
0 
0 
0 
0 
0 
0 
0 
0 
0 
0 
0 
0 
0 
0 
0 
0 
0 
0 
0 
0 
0 
0 
0 
0 
0 
0 
0 
0 
0 
0 
0 
0 
0 
0 
0 
0 
0 
0 
0 
0 
0 
0 
0 
0 
0 
0 
0 
0 
0 
0 
0 
0 
0 
0 
0 
0 
0 
0 
0 
0 
0 
0 
0 
0 
0 
0 
0 
0 
0 
0 
0 
0 
0 
0 
0 
0 
0 
0 
0 
0 
0 
0 
0 
0 
0 
0 
0 
0 
0 
0 
0 
0 
0 
0 
0 
0 
0 
0 
0 
0 
0 
0 
0 
0 
0 
0 
0 
0 
0 
0 
0 
0 
0 
0 
0 
0 
0 
0 
0 
0 
0 
0 
0 
0 
0 
0 
0 
0 
0 
0 
0 
0 
0 
0 
0 
0 
0 
0 
0 
0 
0 
0 
0 
0 
0 
0 
0 
0 
0 
0 
0 
0 
0 
0 
0 
0 
0 
0 
0 
0 
0 
0 
0 
0 
0 
0 
0 
0 
0 
0 
0 
0 
0 
0 
0 
0 
0 
0 
0 
0 
0 
0 
0 
0 
0 
0 
0 
0 
0 
0 
0 
0 
0 
0.607255969 
0.6207954577 
0.616470693 
0.6123869628 
0.6221774747 
0.6005612272 
0.6039348483 
0.6068480143 
0.6113456617 
0.6170253415 
0.6183563304 
0.6274174456 
0.6152457886 
0.6125539814 
0.6054453011 
0.6181528837 
0.6074169721 
0.6298621651 
0.6245329325 
0.6244297551 
0.6013645012 
0.6220613344 
0.6205045143 
0.6260846231 
0.6095332734 
0.6095892609 
0.61305248 
0.6328538262 
0.6123807195 
0.597297095 
0.6132474116 
0.6159749416 
0.6142399013 
0.6140941388 
0.6045870809 
0.5994933015 
0.6007458298 
0.6028398772 
0.6097329539 
0.6223350815 
0.6169024943 
0.6209300068 
0.6089616711 
0.6115244279 
0.5959826789 
0.6174460739 
0.6183360972 
0.6097131602 
0.6078780762 
0.6154636142 
0.6055418238 
0.6028320998 
0.6134335099 
0.614623419 
0.615076357 
0.6227123386 
0.6320877989 
0.6125650127 
0.6104736575 
0.6215442581 
0.5900150637 
0.6028830325 
0.626800856 
0.612146331 
0.622136626 
0.6139047969 
0.613187967 
0.6259912123 
0.616137758 
0.6073414041 
0.6200047748 
0.6175344898 
0.6158279704 
0.6184869121 
0.6034747165 
0.6147523618 
0.5986599976 
0.6376404758 
0.5909722948 
0.6169792562 
0.6182013823 
0.6066140927 
0.6256569494 
0.6148649813 
0.6033427789 
0.6057898644 
0.6033133973 
0.6198324409 
0.6071952325 
0.616078469 
0.580332617 
0.624625947 
0.6035756189 
0.6146935727 
0.6254928801 
0.6023142731 
0.6193549989 
0.6085970957 
0.6063905314 
0.6266156307 
0.6037269557 
0.6212285055 
0.6027207827 
0.6130154198 
0.620032722 
0.6194611072 
0.6121439375 
0.623355868 
0.6025089698 
0.6027066037 
0.6129887824 
0.598392199 
0.608884829 
0.6108044217 
0.6291428061 
0.6098303587 
0.610464671 
0.6203270895 
0.6111036595 
0.6113621875 
0.6015621998 
0.6143379241 
0.5977748351 
0.6223801421 
0.6177507164 
0.61594188 
0.5960674093 
0.6003485943 
0.6109000236 
0.6124106604 
0.6137681838 
0.6316579922 
0.6345166815 
0.6149804736 
0.6189783811 
0.6198118277 
0.6005692878 
0.6010342342 
0.6126708617 
0.6065720759 
0.6211258963 
0.61362008 
0.6016463564 
0.6143578914 
0.6161403484 
0.6200172202 
0.6107748255 
0.6169788195 
0.6191604631 
0.6140137542 
0.6192551036 
0.617332404 
0.6054884454 
0.6041557557 
0.6108552999 
0.6017298631 
0.6138429878 
0.6169735357 
0.6156627334 
0.614703207 
0.6101145097 
0.618968787 
0.6208676793 
0.613939174 
0.6062690205 
0.6041405647 
0.6021403228 
0.609518592 
0.6106736996 
0.6003967202 
0.6148648478 
0.6163378287 
0.5867923252 
0.5990084624 
0.62249288 
0.6093817813 
0.6175999534 
0.6062069434 
0.5965649221 
0.6126295118 
0.6106808703 
0.6115039851 
0.6338003641 
0.6139673749 
0.6102585076 
0.6110336527 
0.6222429768 
0.6274063123 
0.6112494012 
0.6124593172 
0.6098822427 
0.6158279944 
0.6183259167 
0.6156812404 
0.5873992535 
0.5976442382 
0.6046353215 
0.6000364756 
0.6134412708 
0.6028118677 
0.6253669477 
0.6201622563 
0.6141596211 
0.6221793986 
0.6185225122 
0.5914972065 
0.6164306062 
0.6137039122 
0.6386309435 
0.6190414022 
0.6192310057 
0.6217765272 
0.6032555883 
0.6288406026 
0.6237952939 
0.6201353245 
0.6164762496 
0.6239487354 
0.6137649034 
0.6258055224 
0.618643291 
0.6102657944 
0.6175944649 
0.5987426916 
0.6213288457 
0.6017542243 
0.6015318871 
0.5943377219 
0.6246288168 
0.6170125044 
0.6279603594 
0.601852158 
0.6164804721 
0.6123657514 
0.6119576612 
0.6070429431 
0.6150886145 
0.6092275969 
0.601722104 
0.6377962207 
0.6205131931 
0.6124216356 
0.6232239201 
0.6041448374 
0.6193367578 
0.6150183713 
0.6067551414 
0.6286971564 
0.6127916559 
0.6102035969 
0.6169890662 
0.6143320317 
0.6103897082 
0.6128255116 
0.6140056431 
0.6140381512 
0.6145825408 
0.6141650407 
0.6032895009 
0.6104299008 
0.6248578967 
0.6106875503 
0.6211122975 
0.5972696943 
0.6130494878 
0.6153002444 
0.6088838519 
0.6198154267 
0.6231234423 
0.6109072897 
0.6140825883 
0.5913962431 
0.6128294139 
0.6208940687 
0.6195815064 
0.6219245242 
0.6074097946 
0.6164613344 
0.6287377337 
0.6162804696 
0.617423692 
0.6082090134 
0.6078715699 
0.597900941 
0.5985669286 
0.5941899584 
0.6071182698 
0.611931309 
0.613176525 
0.6142293972 
0.5918875604 
0.6080303032 
0.6066649867 
0.6199090051 
0.6104788876 
0.6288900386 
0.6133989613 
0.5952115403 
0.6276998518 
0.6223035831 
0.6047203851 
0.6004484251 
0.616754789 
0.6101230608 
0.6279224284 
0.6138069739 
0.6122966838 
0.6048701808 
0.6065224044 
0.6073398443 
0.605439202 
0.5898696706 
0.5825710602 
0.6042546503 
0.5925596154 
0.6091612425 
0.6134798952 
0.608510021 
0.6111874226 
0.6062293621 
0.6089006581 
0.6052809297 
0.5983171995 
0.6216740735 
0.6188543542 
0.6160335332 
0.627601868 
0.6160851233 
0.6284012811 
0.6210510752 
0.6213685067 
0.6352337048 
0.6154764287 
0.6118463145 
0.6149510037 
0.6162867679 
0.6224931574 
0.6284329117 
0.6046902759 
0.6208014227 
0.6339276642 
0.609952126 
0.6188167315 
0.6133925187 
0.6193162033 
0.6162023392 
0.6185663137 
0.6256680838 
0.6253642261 
0.6027634773 
0.6276678453 
0.6229530284 
0.613326832 
0.6188184761 
0.6296476322 
0.6144304442 
0.6148091962 
0.617364649 
0.6303970655 
0.6235891072 
0.624017865 
0.6199691069 
0.6219302289 
0.5946857947 
0.6098624715 
0.6030199884 
0.6013260671 
0.608206481 
0.5940300189 
0.6236320793 
0.6236020381 
0.6193797456 
0.609057756 
0.6104478947 
0.5986482809 
0.5956786662 
0.6158150928 
0.6185177146 
0.6196164008 
0.6123622075 
0.6297078603 
0.6140764875 
0.6162549405 
0.6318498139 
0.6223121498 
0.6214120281 
0.6133052435 
0.6107575527 
0.6221894058 
0.6190669369 
0.6249885087 
0.6111962068 
0.6099450111 
0.6111481691 
0.6056592532 
0.6078155509 
0.6178334507 
0.6069857992 
0.6070911548 
0.619140051 
0.6204173793 
0.6123634417 
0.6173611367 
0.6180666814 
0.6280695491 
0.6078451131 
0.6119816741 
0.6103199572 
0.6194117516 
0.6147337568 
0.6076067978 
0.6102979424 
0.6267111063 
0.6151924859 
0.6208036034 
0.6098236029 
0.6190248357 
0.6287073515 
0.6156442084 
0.6273455713 
0.6189354717 
0.6171384119 
0.6138520229 
0.6063720201 
0.5957463869 
0.600529182 
0.6218691179 
0.6040642929 
0.6023369495 
0.6049987585 
0.6142965216 
0.6029099271 
0.6050758696 
0.6092313262 
0.6017190984 
0.6090144276 
0.6210665182 
0.6155603839 
0.6164044642 
0.6210353912 
0.6217652562 
0.6169849403 
0.6030870735 
0.6146777384 
0.6008919529 
0.615147017 
0.6154985184 
0.5990554119 
0.5995163176 
0.6094273393 
0.6287516597 
0.6194091503 
0.6299561773 
0.5976024781 
0.6240702182 
0.6235865975 
0.6216996368 
0.6128346786 
0.6215624595 
0.6034163573 
0.6138272902 
0.6150530029 
0.6116335068 
0.6164916097 
0.6061773541 
0.6093374116 
0.6233570326 
0.6325862333 
0.6082431233 
0.6143229565 
0.6231838039 
0.5954296725 
0.609575219 
0.6012972688 
0.6026727607 
0.6083527932 
0.6126567494 
0.6010548834 
0.6141108158 
0.6290726651 
0.6157863505 
0.6078883125 
0.613089845 
0.6188109409 
0.6220484356 
0.6242529242 
0.6076596362 
0.5879840642 
0.6182519148 
0.6179525442 
0.594893243 
0.6207023735 
0.6159377015 
0.6161876236 
0.6065635838 
0.5976215887 
0.5977670212 
0.6084806137 
0.6144317241 
0.6213129524 
0.6054269964 
0.6116655223 
0.6147166644 
0.6259572055 
0.6147702774 
0.6146687348 
0.5871392535 
0.6182455579 
0.6144051851 
0.5911053056 
0.6218295363 
0.6110507692 
0.6278217729 
0.598255171 
0.5952461851 
0.6147762156 
0.6212740371 
0.6136865045 
0.6154644907 
0.5954596537 
0.6124854629 
0.5952829242 
0.6274671606 
0.6180888394 
0.6017877016 
0.6217630596 
0.6185775797 
0.6153608876 
0.6118910115 
0.6224303887 
0.6102308664 
0.6100637288 
0.607529948 
0.6060875609 
0.617666233 
0.6186776479 
0.6414185041 
0.6175546584 
0.6137043534 
0.6122528836 
0.6250018951 
0.5987679242 
0.6048988669 
0.6192506265 
0.6213388224 
0.6045440627 
0.6086756342 
0.6090389843 
0.6144850748 
0.601901283 
0.6105734656 
0.6064019865 
0.6215817658 
0.6222041511 
0.6199426724 
0.6125531944 
0.6151310893 
0.6225439547 
0.6055704924 
0.6056441606 
0.603054649 
0.6080303482 
0.6016114462 
0.5965703496 
0.5998580024 
0.5965353582 
0.6113409089 
0.6048365257 
0.6200149015 
0.6155135939 
0.6068059292 
0.614365198 
0.6107301324 
0.6212725897 
0.6061457908 
0.6119334236 
0.6039274366 
0.6051736284 
0.5884340743 
0.5968180651 
0.6102044936 
0.5953971752 
0.6001982731 
0.6206630136 
0.6130345436 
0.6189359791 
0.620480907 
0.5916720214 
0.6138371843 
0.6299235235 
0.6160431669 
0.6076655376 
0.6039595333 
0.6127774434 
0.6228919951 
0.6211944529 
0.6175514952 
0.6250389846 
0.6135642367 
0.6156372881 
0.6218349719 
0.6062415553 
0.5905589046 
0.6097609651 
0.6023349463 
0.5942556681 
0.5902497911 
0.6314429534 
0.5992341421 
0.6157880689 
0.6084631876 
0.5991275882 
0.6274513858 
0.6075289756 
0.622394858 
0.6181486985 
0.6079599036 
0.6249019648 
0.6187859211 
0.6184826272 
0.6030278129 
0.6223422124 
0.617819804 
0.6086782702 
0.6129812573 
0.6270163858 
0.616434058 
0.6213746286 
0.6419209559 
0.6152118257 
0.6123829458 
0.6206643411 
0.6242030947 
0.6059910507 
0.6227061684 
0.6158707656 
0.6091958787 
0.6119842252 
0.6244933238 
0.6125653615 
0.6050221 
0.6048105864 
0.6219126183 
0.632984025 
0.615297266 
0.6204287102 
0.6117363173 
0.6074425761 
0.6104256744 
0.6057803785 
0.6055131585 
0.6082754192 
0.6172825635 
0.6219927532 
0.6362723206 
0.6167561157 
0.6086089203 
0.6150223008 
0.6164853304 
0.5876910968 
0.6184113937 
0.6027467123 
0.6100526251 
0.6198503534 
0.5968951307 
0.6196720892 
0.6092927524 
0.6377454901 
0.6178216116 
0.6237081262 
0.6283966459 
0.6320771915 
0.6161701882 
0.6230154475 
0.6187895122 
0.6167647414 
0.6021007802 
0.6250594246 
0.6145801475 
0.6037298406 
0.601323875 
0.617741121 
0.6023418212 
0.6146137285 
0.6083615422 
0.5981371407 
0.6260550705 
0.6156731711 
0.602662708 
0.6088074203 
0.6008289246 
0.6129983784 
0.6023230794 
0.6072488954 
0.6028416404 
0.6230482314 
0.6135051998 
0.608664458 
0.590672591 
0.5998699903 
0.6134496805 
0.5989684337 
0.5939582921 
0.602019333 
0.6116525745 
0.6100709719 
0.6193154181 
0.612763704 
0.6012024435 
0.6089121378 
0.6138586785 
0.6206035762 
0.6174994658 
0.6214995479 
0.6051944943 
0.6211245079 
0.6204813642 
0.6153968396 
0.625086405 
0.6097238171 
0.6277172762 
0.6177754348 
0.6111758742 
0.6155177792 
0.6128482835 
0.617746397 
0.6104882537 
0.6229746373 
0.5975581147 
0.6124269023 
0.6064771881 
0.6189039685 
0.6061628448 
0.6095000119 
0.6014852472 
0.6141058568 
0.6032405585 
0.6032643872 
0.6131448805 
0.6180673436 
0.6063454336 
0.6150620385 
0.6131553275 
0.6094279656 
0.6075486809 
0.6034717805 
0.6107465054 
0.6067871771 
0.6129678935 
0.6109982119 
0.6248669508 
0.6078496209 
0.6136976512 
0.6257306613 
0.6124533588 
0.613740771 
0.6170632361 
0.6077397807 
0.6077859744 
0.623801444 
0.6070623475 
0.5937752878 
0.5957791411 
0.5800669588 
0.5894016291 
0.614061273 
0.6141582302 
0.6311916174 
0.6088438626 
0.6152927522 
0.6245167791 
0.6058380279 
0.6188588155 
0.6116069946 
0.5975166715 
0.6241154392 
0.6115360974 
0.603401247 
0.6152246571 
0.6198160421 
0.6191014864 
0.6134756382 
0.610813761 
0.6030656746 
0.6192520835 
0.6061692187 
0.614832806 
0.6008568192 
0.613526082 
0.6136492963 
0.6103465945 
0.6055435821 
0.6074883001 
0.611308549 
0.6113480589 
0.6171833324 
0.6039758437 
0.6081614975 
0.6289010609 
0.6045547567 
0.6254310674 
0.5999667268 
0.6220286097 
0.6068650697 
0.6058761533 
0.6142917239 
0.5982750909 
0.6016750441 
0.6118299026 
0.625255752 
0.6037853252 
0.6108313901 
0.6158279094 
0.6018585974 
0.6045241524 
0.60623351 
0.6052940762 
0.6067889531 
0.5899191168 
0.5982085271 
0.6093403699 
0.6088219599 
0.6034755056 
0.6065971419 
0.6013015661 
0.6026408237 
0.6204560727 
0.5977200936 
0.6070459293 
0.6095782588 
0.6307370559 
0.6120079276 
0.6150170697 
0.6186287613 
0.6073934804 
0.6170556693 
0.5992714182 
0.603793235 
0.6039254697 
0.6275415573 
0.6176708102 
0.603326703 
0.5943335212 
0.6052045865 
0.6137796735 
0.6083526512 
0.6029349522 
0.6025912806 
0.621081189 
0.6015482081 
0.6117800889 
0.6109760739 
0.5966462803 
0.6020385101 
0.607629812 
0.6080460407 
0.606843483 
0.6087242131 
0.6130124137 
0.6175583215 
0.6352117424 
0.6195718778 
0.614087493 
0.6253377902 
0.6093009601 
0.6195653401 
0.6091671445 
0.6117209883 
0.6014950501 
0.6032391569 
0.5993910084 
0.6115856482 
0.6147619098 
0.6012589322 
0.6099841904 
0.604056642 
0.6228366876 
0.6111531673 
0.5935802992 
0.6161474188 
0.6131308703 
0.6241806798 
0.6226637623 
0.6101507139 
0.6298289968 
0.6176641687 
0.62644036 
0.622733288 
0.6201985692 
0.6232538996 
0.6073975383 
0.6126807805 
0.6095746954 
0.6269792721 
0.6024318826 
0.6129736968 
0.6244582047 
0.6021818553 
0.6038703019 
0.6059062483 
0.5985132928 
0.6100047699 
0.5990862776 
0.5942299539 
0.6125232164 
0.6135341843 
0.6115180896 
0.6163075872 
0.6053182281 
0.6037890427 
0.6258976987 
0.6191523824 
0.6245443536 
0.6056551912 
0.5962324908 
0.6151353699 
0.6194428062 
0.6121504488 
0.6209825072 
0.6194625787 
0.61428143 
0.6127253185 
0.6077255317 
0.6129652475 
0.6292748699 
0.6203649034 
0.6128038873 
0.6238119297 
0.6190828176 
0.6131039711 
0.6103894241 
0.6107518755 
0.625186983 
0.6126754446 
0.6321799194 
0.6363829958 
0.6043909043 
0.6083236141 
0.6166242763 
0.6093751914 
0.5993193329 
0.6094277988 
0.6188933876 
0.6317703155 
0.6238824492 
0.6013600348 
0.6257414714 
0.6188747152 
0.6142048466 
0.611214447 
0.6139968996 
0.6089115768 
0.6257184864 
0.625635475 
0.6178258516 
0.6136138555 
0.6158933496 
0.6241166645 
0.6053483955 
0.6012621561 
0.6038649753 
0.5981636834 
0.6051191558 
0.5919258844 
0.6249810048 
0.6009473586 
0.6226207297 
0.6192614521 
0.6166300109 
0.5998384808 
0.598981001 
0.6124998485 
0.6073318515 
0.6034014848 
0.619967858 
0.6033891718 
0.6128456649 
0.6366262795 
0.6373829378 
0.6111666089 
0.609543403 
0.6224679265 
0.6112499239 
0.6040124633 
0.6033723664 
0.6061497176 
0.5987207306 
0.6248688449 
0.6207125053 
0.605989332 
0.6084514957 
0.6181345813 
0.6188855921 
0.593844025 
0.5986498851 
0.605209182 
0.6038642758 
0.601772739 
0.6009974577 
0.6059790631 
0.6103297227 
0.6011433352 
0.5989147236 
0.6095544613 
0.6051324246 
0.5891458196 
0.6020800817 
0.6222291757 
0.6164661634 
0.6139726771 
0.611970268 
0.6108494447 
0.6152348829 
0.61172899 
0.5912820837 
0.6124490531 
0.6175096944 
0.5878063422 
0.6002602273 
0.5997758177 
0.6237115413 
0.6034641021 
0.6255675447 
0.6126151248 
0.6213504762 
0.610577004 
0.6190186478 
0.6132523229 
0.6134653606 
0.6125808534 
0.6294258125 
0.6075549085 
0.6036032056 
0.6089118176 
0.6067450143 
0.6031388636 
0.6031058689 
0.5914598355 
0.5956063082 
0.6010856527 
0.5985290596 
0.5991515472 
0.6256898349 
0.5937272887 
0.6203137627 
0.6151104465 
0.6000246006 
0.5898212603 
0.6049835471 
0.622585176 
0.5838581621 
0.6078258901 
0.6098634472 
0.6036920386 
0.6177971052 
0.5976259796 
0.6011652608 
0.6000855478 
0.6236114616 
0.6171418635 
0.6074053869 
0.5982339082 
0.6004791316 
0.6178686348 
0.6067153102 
0.6081498625 
0.61482267 
0.595880642 
0.6343289315 
0.6343935131 
0.624088852 
0.6186394754 
0.6338180768 
0.6092646731 
0.5933744663 
0.5959663975 
0.5995674354 
0.6114252932 
0.611630806 
0.6302323887 
0.6193273728 
0.6114338492 
0.6044977914 
0.6137058468 
0.6110407483 
0.6224398715 
0.6234395414 
0.6222205214 
0.6248100377 
0.6102887152 
0.6006415473 
0.6284694032 
0.609380293 
0.6196026177 
0.6181260016 
0.5964234529 
0.6174291897 
0.6303821407 
0.6064897086 
0.6223713608 
0.6091988095 
0.6133046211 
0.6239599963 
0.6134041978 
0.620331023 
0.6110262994 
0.6194327397 
0.6300538348 
0.605866042 
0.6152894176 
0.5967751518 
0.6221103898 
0.6115408199 
0.6151032503 
0.6126991604 
0.6243936706 
0.6043100913 
0.616769091 
0.6295360426 
0.6097101013 
0.6193144539 
0.6023195481 
0.6119980854 
0.6073175999 
0.6279705144 
0.6185013543 
0.6009531458 
0.6108875546 
0.6232941616 
0.6138580147 
0.6275117476 
0.6129515204 
0.602464649 
0.6134889582 
0.5986201676 
0.6068236439 
0.6115597037 
0.6106204274 
0.6092540494 
0.6169282958 
0.6030711692 
0.6152704248 
0.6116731834 
0.6303849514 
0.6112202134 
0.6046606405 
0.6194859222 
0.6021938403 
0.5891278186 
0.6072561722 
0.6113980128 
0.6168185251 
0.611664706 
0.5954865619 
0.6096586621 
0.5993904107 
0.6032561551 
0.6079935164 
0.6044577394 
0.6243183324 
0.6189348497 
0.6084607355 
0.6189075856 
0.6115483021 
0.6075035279 
0.6064917997 
0.6184361822 
0.6261124396 
0.604358457 
0.6089148057 
0.6123260153 
0.6182060097 
0.6231830108 
0.6054159883 
0.5994034908 