# vtk DataFile Version 3.0
MOAB 4.99 (Alpha)
ASCII
DATASET UNSTRUCTURED_GRID
POINTS 3146 double
0 -1 -1
0.4 -1 -1
0.8 -1 -1
1.2 -1 -1
1.6 -1 -1
2 -1 -1
2.4 -1 -1
2.8 -1 -1
3.2 -1 -1
3.6 -1 -1
4 -1 -1
4.4 -1 -1
4.8 -1 -1
5.2 -1 -1
5.6 -1 -1
6 -1 -1
6.4 -1 -1
6.8 -1 -1
7.2 -1 -1
7.6 -1 -1
8 -1 -1
8.4 -1 -1
8.8 -1 -1
9.2 -1 -1
9.6 -1 -1
10 -1 -1
0 -0.8 -1
0.4 -0.8 -1
0.8 -0.8 -1
1.2 -0.8 -1
1.6 -0.8 -1
2 -0.8 -1
2.4 -0.8 -1
2.8 -0.8 -1
3.2 -0.8 -1
3.6 -0.8 -1
4 -0.8 -1
4.4 -0.8 -1
4.8 -0.8 -1
5.2 -0.8 -1
5.6 -0.8 -1
6 -0.8 -1
6.4 -0.8 -1
6.8 -0.8 -1
7.2 -0.8 -1
7.6 -0.8 -1
8 -0.8 -1
8.4 -0.8 -1
8.8 -0.8 -1
9.2 -0.8 -1
9.6 -0.8 -1
10 -0.8 -1
0 -0.6 -1
0.4 -0.6 -1
0.8 -0.6 -1
1.2 -0.6 -1
1.6 -0.6 -1
2 -0.6 -1
2.4 -0.6 -1
2.8 -0.6 -1
3.2 -0.6 -1
3.6 -0.6 -1
4 -0.6 -1
4.4 -0.6 -1
4.8 -0.6 -1
5.2 -0.6 -1
5.6 -0.6 -1
6 -0.6 -1
6.4 -0.6 -1
6.8 -0.6 -1
7.2 -0.6 -1
7.6 -0.6 -1
8 -0.6 -1
8.4 -0.6 -1
8.8 -0.6 -1
9.2 -0.6 -1
9.6 -0.6 -1
10 -0.6 -1
0 -0.4 -1
0.4 -0.4 -1
0.8 -0.4 -1
1.2 -0.4 -1
1.6 -0.4 -1
2 -0.4 -1
2.4 -0.4 -1
2.8 -0.4 -1
3.2 -0.4 -1
3.6 -0.4 -1
4 -0.4 -1
4.4 -0.4 -1
4.8 -0.4 -1
5.2 -0.4 -1
5.6 -0.4 -1
6 -0.4 -1
6.4 -0.4 -1
6.8 -0.4 -1
7.2 -0.4 -1
7.6 -0.4 -1
8 -0.4 -1
8.4 -0.4 -1
8.8 -0.4 -1
9.2 -0.4 -1
9.6 -0.4 -1
10 -0.4 -1
0 -0.2 -1
0.4 -0.2 -1
0.8 -0.2 -1
1.2 -0.2 -1
1.6 -0.2 -1
2 -0.2 -1
2.4 -0.2 -1
2.8 -0.2 -1
3.2 -0.2 -1
3.6 -0.2 -1
4 -0.2 -1
4.4 -0.2 -1
4.8 -0.2 -1
5.2 -0.2 -1
5.6 -0.2 -1
6 -0.2 -1
6.4 -0.2 -1
6.8 -0.2 -1
7.2 -0.2 -1
7.6 -0.2 -1
8 -0.2 -1
8.4 -0.2 -1
8.8 -0.2 -1
9.2 -0.2 -1
9.6 -0.2 -1
10 -0.2 -1
0 0 -1
0.4 0 -1
0.8 0 -1
1.2 0 -1
1.6 0 -1
2 0 -1
2.4 0 -1
2.8 0 -1
3.2 0 -1
3.6 0 -1
4 0 -1
4.4 0 -1
4.8 0 -1
5.2 0 -1
5.6 0 -1
6 0 -1
6.4 0 -1
6.8 0 -1
7.2 0 -1
7.6 0 -1
8 0 -1
8.4 0 -1
8.8 0 -1
9.2 0 -1
9.6 0 -1
10 0 -1
0 0.2 -1
0.4 0.2 -1
0.8 0.2 -1
1.2 0.2 -1
1.6 0.2 -1
2 0.2 -1
2.4 0.2 -1
2.8 0.2 -1
3.2 0.2 -1
3.6 0.2 -1
4 0.2 -1
4.4 0.2 -1
4.8 0.2 -1
5.2 0.2 -1
5.6 0.2 -1
6 0.2 -1
6.4 0.2 -1
6.8 0.2 -1
7.2 0.2 -1
7.6 0.2 -1
8 0.2 -1
8.4 0.2 -1
8.8 0.2 -1
9.2 0.2 -1
9.6 0.2 -1
10 0.2 -1
0 0.4 -1
0.4 0.4 -1
0.8 0.4 -1
1.2 0.4 -1
1.6 0.4 -1
2 0.4 -1
2.4 0.4 -1
2.8 0.4 -1
3.2 0.4 -1
3.6 0.4 -1
4 0.4 -1
4.4 0.4 -1
4.8 0.4 -1
5.2 0.4 -1
5.6 0.4 -1
6 0.4 -1
6.4 0.4 -1
6.8 0.4 -1
7.2 0.4 -1
7.6 0.4 -1
8 0.4 -1
8.4 0.4 -1
8.8 0.4 -1
9.2 0.4 -1
9.6 0.4 -1
10 0.4 -1
0 0.6 -1
0.4 0.6 -1
0.8 0.6 -1
1.2 0.6 -1
1.6 0.6 -1
2 0.6 -1
2.4 0.6 -1
2.8 0.6 -1
3.2 0.6 -1
3.6 0.6 -1
4 0.6 -1
4.4 0.6 -1
4.8 0.6 -1
5.2 0.6 -1
5.6 0.6 -1
6 0.6 -1
6.4 0.6 -1
6.8 0.6 -1
7.2 0.6 -1
7.6 0.6 -1
8 0.6 -1
8.4 0.6 -1
8.8 0.6 -1
9.2 0.6 -1
9.6 0.6 -1
10 0.6 -1
0 0.8 -1
0.4 0.8 -1
0.8 0.8 -1
1.2 0.8 -1
1.6 0.8 -1
2 0.8 -1
2.4 0.8 -1
2.8 0.8 -1
3.2 0.8 -1
3.6 0.8 -1
4 0.8 -1
4.4 0.8 -1
4.8 0.8 -1
5.2 0.8 -1
5.6 0.8 -1
6 0.8 -1
6.4 0.8 -1
6.8 0.8 -1
7.2 0.8 -1
7.6 0.8 -1
8 0.8 -1
8.4 0.8 -1
8.8 0.8 -1
9.2 0.8 -1
9.6 0.8 -1
10 0.8 -1
0 1 -1
0.4 1 -1
0.8 1 -1
1.2 1 -1
1.6 1 -1
2 1 -1
2.4 1 -1
2.8 1 -1
3.2 1 -1
3.6 1 -1
4 1 -1
4.4 1 -1
4.8 1 -1
5.2 1 -1
5.6 1 -1
6 1 -1
6.4 1 -1
6.8 1 -1
7.2 1 -1
7.6 1 -1
8 1 -1
8.4 1 -1
8.8 1 -1
9.2 1 -1
9.6 1 -1
10 1 -1
0 -1 -0.8
0.4 -1 -0.8
0.8 -1 -0.8
1.2 -1 -0.8
1.6 -1 -0.8
2 -1 -0.8
2.4 -1 -0.8
2.8 -1 -0.8
3.2 -1 -0.8
3.6 -1 -0.8
4 -1 -0.8
4.4 -1 -0.8
4.8 -1 -0.8
5.2 -1 -0.8
5.6 -1 -0.8
6 -1 -0.8
6.4 -1 -0.8
6.8 -1 -0.8
7.2 -1 -0.8
7.6 -1 -0.8
8 -1 -0.8
8.4 -1 -0.8
8.8 -1 -0.8
9.2 -1 -0.8
9.6 -1 -0.8
10 -1 -0.8
0 -0.8 -0.8
0.4 -0.8 -0.8
0.8 -0.8 -0.8
1.2 -0.8 -0.8
1.6 -0.8 -0.8
2 -0.8 -0.8
2.4 -0.8 -0.8
2.8 -0.8 -0.8
3.2 -0.8 -0.8
3.6 -0.8 -0.8
4 -0.8 -0.8
4.4 -0.8 -0.8
4.8 -0.8 -0.8
5.2 -0.8 -0.8
5.6 -0.8 -0.8
6 -0.8 -0.8
6.4 -0.8 -0.8
6.8 -0.8 -0.8
7.2 -0.8 -0.8
7.6 -0.8 -0.8
8 -0.8 -0.8
8.4 -0.8 -0.8
8.8 -0.8 -0.8
9.2 -0.8 -0.8
9.6 -0.8 -0.8
10 -0.8 -0.8
0 -0.6 -0.8
0.4 -0.6 -0.8
0.8 -0.6 -0.8
1.2 -0.6 -0.8
1.6 -0.6 -0.8
2 -0.6 -0.8
2.4 -0.6 -0.8
2.8 -0.6 -0.8
3.2 -0.6 -0.8
3.6 -0.6 -0.8
4 -0.6 -0.8
4.4 -0.6 -0.8
4.8 -0.6 -0.8
5.2 -0.6 -0.8
5.6 -0.6 -0.8
6 -0.6 -0.8
6.4 -0.6 -0.8
6.8 -0.6 -0.8
7.2 -0.6 -0.8
7.6 -0.6 -0.8
8 -0.6 -0.8
8.4 -0.6 -0.8
8.8 -0.6 -0.8
9.2 -0.6 -0.8
9.6 -0.6 -0.8
10 -0.6 -0.8
0 -0.4 -0.8
0.4 -0.4 -0.8
0.8 -0.4 -0.8
1.2 -0.4 -0.8
1.6 -0.4 -0.8
2 -0.4 -0.8
2.4 -0.4 -0.8
2.8 -0.4 -0.8
3.2 -0.4 -0.8
3.6 -0.4 -0.8
4 -0.4 -0.8
4.4 -0.4 -0.8
4.8 -0.4 -0.8
5.2 -0.4 -0.8
5.6 -0.4 -0.8
6 -0.4 -0.8
6.4 -0.4 -0.8
6.8 -0.4 -0.8
7.2 -0.4 -0.8
7.6 -0.4 -0.8
8 -0.4 -0.8
8.4 -0.4 -0.8
8.8 -0.4 -0.8
9.2 -0.4 -0.8
9.6 -0.4 -0.8
10 -0.4 -0.8
0 -0.2 -0.8
0.4 -0.2 -0.8
0.8 -0.2 -0.8
1.2 -0.2 -0.8
1.6 -0.2 -0.8
2 -0.2 -0.8
2.4 -0.2 -0.8
2.8 -0.2 -0.8
3.2 -0.2 -0.8
3.6 -0.2 -0.8
4 -0.2 -0.8
4.4 -0.2 -0.8
4.8 -0.2 -0.8
5.2 -0.2 -0.8
5.6 -0.2 -0.8
6 -0.2 -0.8
6.4 -0.2 -0.8
6.8 -0.2 -0.8
7.2 -0.2 -0.8
7.6 -0.2 -0.8
8 -0.2 -0.8
8.4 -0.2 -0.8
8.8 -0.2 -0.8
9.2 -0.2 -0.8
9.6 -0.2 -0.8
10 -0.2 -0.8
0 0 -0.8
0.4 0 -0.8
0.8 0 -0.8
1.2 0 -0.8
1.6 0 -0.8
2 0 -0.8
2.4 0 -0.8
2.8 0 -0.8
3.2 0 -0.8
3.6 0 -0.8
4 0 -0.8
4.4 0 -0.8
4.8 0 -0.8
5.2 0 -0.8
5.6 0 -0.8
6 0 -0.8
6.4 0 -0.8
6.8 0 -0.8
7.2 0 -0.8
7.6 0 -0.8
8 0 -0.8
8.4 0 -0.8
8.8 0 -0.8
9.2 0 -0.8
9.6 0 -0.8
10 0 -0.8
0 0.2 -0.8
0.4 0.2 -0.8
0.8 0.2 -0.8
1.2 0.2 -0.8
1.6 0.2 -0.8
2 0.2 -0.8
2.4 0.2 -0.8
2.8 0.2 -0.8
3.2 0.2 -0.8
3.6 0.2 -0.8
4 0.2 -0.8
4.4 0.2 -0.8
4.8 0.2 -0.8
5.2 0.2 -0.8
5.6 0.2 -0.8
6 0.2 -0.8
6.4 0.2 -0.8
6.8 0.2 -0.8
7.2 0.2 -0.8
7.6 0.2 -0.8
8 0.2 -0.8
8.4 0.2 -0.8
8.8 0.2 -0.8
9.2 0.2 -0.8
9.6 0.2 -0.8
10 0.2 -0.8
0 0.4 -0.8
0.4 0.4 -0.8
0.8 0.4 -0.8
1.2 0.4 -0.8
1.6 0.4 -0.8
2 0.4 -0.8
2.4 0.4 -0.8
2.8 0.4 -0.8
3.2 0.4 -0.8
3.6 0.4 -0.8
4 0.4 -0.8
4.4 0.4 -0.8
4.8 0.4 -0.8
5.2 0.4 -0.8
5.6 0.4 -0.8
6 0.4 -0.8
6.4 0.4 -0.8
6.8 0.4 -0.8
7.2 0.4 -0.8
7.6 0.4 -0.8
8 0.4 -0.8
8.4 0.4 -0.8
8.8 0.4 -0.8
9.2 0.4 -0.8
9.6 0.4 -0.8
10 0.4 -0.8
0 0.6 -0.8
0.4 0.6 -0.8
0.8 0.6 -0.8
1.2 0.6 -0.8
1.6 0.6 -0.8
2 0.6 -0.8
2.4 0.6 -0.8
2.8 0.6 -0.8
3.2 0.6 -0.8
3.6 0.6 -0.8
4 0.6 -0.8
4.4 0.6 -0.8
4.8 0.6 -0.8
5.2 0.6 -0.8
5.6 0.6 -0.8
6 0.6 -0.8
6.4 0.6 -0.8
6.8 0.6 -0.8
7.2 0.6 -0.8
7.6 0.6 -0.8
8 0.6 -0.8
8.4 0.6 -0.8
8.8 0.6 -0.8
9.2 0.6 -0.8
9.6 0.6 -0.8
10 0.6 -0.8
0 0.8 -0.8
0.4 0.8 -0.8
0.8 0.8 -0.8
1.2 0.8 -0.8
1.6 0.8 -0.8
2 0.8 -0.8
2.4 0.8 -0.8
2.8 0.8 -0.8
3.2 0.8 -0.8
3.6 0.8 -0.8
4 0.8 -0.8
4.4 0.8 -0.8
4.8 0.8 -0.8
5.2 0.8 -0.8
5.6 0.8 -0.8
6 0.8 -0.8
6.4 0.8 -0.8
6.8 0.8 -0.8
7.2 0.8 -0.8
7.6 0.8 -0.8
8 0.8 -0.8
8.4 0.8 -0.8
8.8 0.8 -0.8
9.2 0.8 -0.8
9.6 0.8 -0.8
10 0.8 -0.8
0 1 -0.8
0.4 1 -0.8
0.8 1 -0.8
1.2 1 -0.8
1.6 1 -0.8
2 1 -0.8
2.4 1 -0.8
2.8 1 -0.8
3.2 1 -0.8
3.6 1 -0.8
4 1 -0.8
4.4 1 -0.8
4.8 1 -0.8
5.2 1 -0.8
5.6 1 -0.8
6 1 -0.8
6.4 1 -0.8
6.8 1 -0.8
7.2 1 -0.8
7.6 1 -0.8
8 1 -0.8
8.4 1 -0.8
8.8 1 -0.8
9.2 1 -0.8
9.6 1 -0.8
10 1 -0.8
0 -1 -0.6
0.4 -1 -0.6
0.8 -1 -0.6
1.2 -1 -0.6
1.6 -1 -0.6
2 -1 -0.6
2.4 -1 -0.6
2.8 -1 -0.6
3.2 -1 -0.6
3.6 -1 -0.6
4 -1 -0.6
4.4 -1 -0.6
4.8 -1 -0.6
5.2 -1 -0.6
5.6 -1 -0.6
6 -1 -0.6
6.4 -1 -0.6
6.8 -1 -0.6
7.2 -1 -0.6
7.6 -1 -0.6
8 -1 -0.6
8.4 -1 -0.6
8.8 -1 -0.6
9.2 -1 -0.6
9.6 -1 -0.6
10 -1 -0.6
0 -0.8 -0.6
0.4 -0.8 -0.6
0.8 -0.8 -0.6
1.2 -0.8 -0.6
1.6 -0.8 -0.6
2 -0.8 -0.6
2.4 -0.8 -0.6
2.8 -0.8 -0.6
3.2 -0.8 -0.6
3.6 -0.8 -0.6
4 -0.8 -0.6
4.4 -0.8 -0.6
4.8 -0.8 -0.6
5.2 -0.8 -0.6
5.6 -0.8 -0.6
6 -0.8 -0.6
6.4 -0.8 -0.6
6.8 -0.8 -0.6
7.2 -0.8 -0.6
7.6 -0.8 -0.6
8 -0.8 -0.6
8.4 -0.8 -0.6
8.8 -0.8 -0.6
9.2 -0.8 -0.6
9.6 -0.8 -0.6
10 -0.8 -0.6
0 -0.6 -0.6
0.4 -0.6 -0.6
0.8 -0.6 -0.6
1.2 -0.6 -0.6
1.6 -0.6 -0.6
2 -0.6 -0.6
2.4 -0.6 -0.6
2.8 -0.6 -0.6
3.2 -0.6 -0.6
3.6 -0.6 -0.6
4 -0.6 -0.6
4.4 -0.6 -0.6
4.8 -0.6 -0.6
5.2 -0.6 -0.6
5.6 -0.6 -0.6
6 -0.6 -0.6
6.4 -0.6 -0.6
6.8 -0.6 -0.6
7.2 -0.6 -0.6
7.6 -0.6 -0.6
8 -0.6 -0.6
8.4 -0.6 -0.6
8.8 -0.6 -0.6
9.2 -0.6 -0.6
9.6 -0.6 -0.6
10 -0.6 -0.6
0 -0.4 -0.6
0.4 -0.4 -0.6
0.8 -0.4 -0.6
1.2 -0.4 -0.6
1.6 -0.4 -0.6
2 -0.4 -0.6
2.4 -0.4 -0.6
2.8 -0.4 -0.6
3.2 -0.4 -0.6
3.6 -0.4 -0.6
4 -0.4 -0.6
4.4 -0.4 -0.6
4.8 -0.4 -0.6
5.2 -0.4 -0.6
5.6 -0.4 -0.6
6 -0.4 -0.6
6.4 -0.4 -0.6
6.8 -0.4 -0.6
7.2 -0.4 -0.6
7.6 -0.4 -0.6
8 -0.4 -0.6
8.4 -0.4 -0.6
8.8 -0.4 -0.6
9.2 -0.4 -0.6
9.6 -0.4 -0.6
10 -0.4 -0.6
0 -0.2 -0.6
0.4 -0.2 -0.6
0.8 -0.2 -0.6
1.2 -0.2 -0.6
1.6 -0.2 -0.6
2 -0.2 -0.6
2.4 -0.2 -0.6
2.8 -0.2 -0.6
3.2 -0.2 -0.6
3.6 -0.2 -0.6
4 -0.2 -0.6
4.4 -0.2 -0.6
4.8 -0.2 -0.6
5.2 -0.2 -0.6
5.6 -0.2 -0.6
6 -0.2 -0.6
6.4 -0.2 -0.6
6.8 -0.2 -0.6
7.2 -0.2 -0.6
7.6 -0.2 -0.6
8 -0.2 -0.6
8.4 -0.2 -0.6
8.8 -0.2 -0.6
9.2 -0.2 -0.6
9.6 -0.2 -0.6
10 -0.2 -0.6
0 0 -0.6
0.4 0 -0.6
0.8 0 -0.6
1.2 0 -0.6
1.6 0 -0.6
2 0 -0.6
2.4 0 -0.6
2.8 0 -0.6
3.2 0 -0.6
3.6 0 -0.6
4 0 -0.6
4.4 0 -0.6
4.8 0 -0.6
5.2 0 -0.6
5.6 0 -0.6
6 0 -0.6
6.4 0 -0.6
6.8 0 -0.6
7.2 0 -0.6
7.6 0 -0.6
8 0 -0.6
8.4 0 -0.6
8.8 0 -0.6
9.2 0 -0.6
9.6 0 -0.6
10 0 -0.6
0 0.2 -0.6
0.4 0.2 -0.6
0.8 0.2 -0.6
1.2 0.2 -0.6
1.6 0.2 -0.6
2 0.2 -0.6
2.4 0.2 -0.6
2.8 0.2 -0.6
3.2 0.2 -0.6
3.6 0.2 -0.6
4 0.2 -0.6
4.4 0.2 -0.6
4.8 0.2 -0.6
5.2 0.2 -0.6
5.6 0.2 -0.6
6 0.2 -0.6
6.4 0.2 -0.6
6.8 0.2 -0.6
7.2 0.2 -0.6
7.6 0.2 -0.6
8 0.2 -0.6
8.4 0.2 -0.6
8.8 0.2 -0.6
9.2 0.2 -0.6
9.6 0.2 -0.6
10 0.2 -0.6
0 0.4 -0.6
0.4 0.4 -0.6
0.8 0.4 -0.6
1.2 0.4 -0.6
1.6 0.4 -0.6
2 0.4 -0.6
2.4 0.4 -0.6
2.8 0.4 -0.6
3.2 0.4 -0.6
3.6 0.4 -0.6
4 0.4 -0.6
4.4 0.4 -0.6
4.8 0.4 -0.6
5.2 0.4 -0.6
5.6 0.4 -0.6
6 0.4 -0.6
6.4 0.4 -0.6
6.8 0.4 -0.6
7.2 0.4 -0.6
7.6 0.4 -0.6
8 0.4 -0.6
8.4 0.4 -0.6
8.8 0.4 -0.6
9.2 0.4 -0.6
9.6 0.4 -0.6
10 0.4 -0.6
0 0.6 -0.6
0.4 0.6 -0.6
0.8 0.6 -0.6
1.2 0.6 -0.6
1.6 0.6 -0.6
2 0.6 -0.6
2.4 0.6 -0.6
2.8 0.6 -0.6
3.2 0.6 -0.6
3.6 0.6 -0.6
4 0.6 -0.6
4.4 0.6 -0.6
4.8 0.6 -0.6
5.2 0.6 -0.6
5.6 0.6 -0.6
6 0.6 -0.6
6.4 0.6 -0.6
6.8 0.6 -0.6
7.2 0.6 -0.6
7.6 0.6 -0.6
8 0.6 -0.6
8.4 0.6 -0.6
8.8 0.6 -0.6
9.2 0.6 -0.6
9.6 0.6 -0.6
10 0.6 -0.6
0 0.8 -0.6
0.4 0.8 -0.6
0.8 0.8 -0.6
1.2 0.8 -0.6
1.6 0.8 -0.6
2 0.8 -0.6
2.4 0.8 -0.6
2.8 0.8 -0.6
3.2 0.8 -0.6
3.6 0.8 -0.6
4 0.8 -0.6
4.4 0.8 -0.6
4.8 0.8 -0.6
5.2 0.8 -0.6
5.6 0.8 -0.6
6 0.8 -0.6
6.4 0.8 -0.6
6.8 0.8 -0.6
7.2 0.8 -0.6
7.6 0.8 -0.6
8 0.8 -0.6
8.4 0.8 -0.6
8.8 0.8 -0.6
9.2 0.8 -0.6
9.6 0.8 -0.6
10 0.8 -0.6
0 1 -0.6
0.4 1 -0.6
0.8 1 -0.6
[...]
CELL_DATA 2500
SCALARS TALLY_TAG double 1
LOOKUP_TABLE default
0.561371 
0.548744 
0.558039 
0.553086 
0.556976 
0.551239 
0.564603 
0.556931 
0.554005 
0.546576 
0.55651 
0.557757 
0.554975 
0.558338 
0.552146 
0.55903 
0.561301 
0.560046 
0.551206 
0.554538 
0.560885 
0.560845 
0.555756 
0.564529 
0.54983 
0.552068 
0.554842 
0.559247 
0.553553 
0.558036 
0.557615 
0.555404 
0.550902 
0.553796 
0.566635 
0.558631 
0.55914 
0.559519 
0.554029 
0.558937 
0.556266 
0.549561 
0.558353 
0.558425 
0.547804 
0.551477 
0.561028 
0.555307 
0.549334 
0.551959 
0.555158 
0.550682 
0.551553 
0.557035 
0.553912 
0.558854 
0.561693 
0.555439 
0.554586 
0.549819 
0.555035 
0.552487 
0.548982 
0.552684 
0.561008 
0.558287 
0.551977 
0.564188 
0.554884 
0.558108 
0.567617 
0.551539 
0.561449 
0.563411 
0.551975 
0.554779 
0.556443 
0.558373 
0.550562 
0.56219 
0.569709 
0.562399 
0.563989 
0.565951 
0.555267 
0.562543 
0.550355 
0.56199 
0.567522 
0.560261 
0.564362 
0.570699 
0.570588 
0.570901 
0.558852 
0.556983 
0.566018 
0.566574 
0.573868 
0.560569 
0.551214 
0.553485 
0.553911 
0.550841 
0.554206 
0.554734 
0.56371 
0.563572 
0.571737 
0.563489 
0.552642 
0.558653 
0.549321 
0.558631 
0.560555 
0.555276 
0.558635 
0.560716 
0.556755 
0.559678 
0.553536 
0.55064 
0.561882 
0.568737 
0.561921 
0.558367 
0.566164 
0.555394 
0.554721 
0.562775 
0.55795 
0.56371 
0.557333 
0.556396 
0.555897 
0.563217 
0.557562 
0.552992 
0.560785 
0.565194 
0.55765 
0.559175 
0.567495 
0.557826 
0.560643 
0.559397 
0.561249 
0.557388 
0.564828 
0.56941 
0.564486 
0.560113 
0.562683 
0.560442 
0.561805 
0.55651 
0.55216 
0.560822 
0.564061 
0.56448 
0.56382 
0.564533 
0.555073 
0.566344 
0.567669 
0.561831 
0.561896 
0.568532 
0.567718 
0.555581 
0.567667 
0.559221 
0.557653 
0.558392 
0.557858 
0.551897 
0.559765 
0.564583 
0.566037 
0.565503 
0.557954 
0.561825 
0.565296 
0.564449 
0.565767 
0.559333 
0.561068 
0.549129 
0.552404 
0.569371 
0.54863 
0.562713 
0.559388 
0.559457 
0.559949 
0.56864 
0.568696 
0.556218 
0.560384 
0.565686 
0.558417 
0.552252 
0.549828 
0.546891 
0.560723 
0.549645 
0.550563 
0.553886 
0.554008 
0.555378 
0.54088 
0.550726 
0.551987 
0.551602 
0.562033 
0.555815 
0.545944 
0.554167 
0.557806 
0.555392 
0.559371 
0.550493 
0.551988 
0.562623 
0.560198 
0.553981 
0.555113 
0.54639 
0.554526 
0.549026 
0.556573 
0.559668 
0.56162 
0.553042 
0.555417 
0.555374 
0.549892 
0.546133 
0.558025 
0.555825 
0.548802 
0.548479 
0.549759 
0.555332 
0.561419 
0.552809 
0.543528 
0.547461 
0.558434 
0.559346 
0.557038 
0.555148 
0.563872 
0.553166 
0.564666 
0.547945 
0.549562 
0.547479 
0.55794 
0.556632 
0.550686 
0.559174 
0.559405 
0.550728 
0.550832 
0.56265 
0.549333 
0.553067 
0.550591 
0.554373 
0.56037 
0.550814 
0.562108 
0.567639 
0.556051 
0.548353 
0.553801 
0.558158 
0.554048 
0.558715 
0.563407 
0.561288 
0.561555 
0.554264 
0.555079 
0.548522 
0.557196 
0.552076 
0.560004 
0.565618 
0.561364 
0.55809 
0.556065 
0.557306 
0.570146 
0.560447 
0.55654 
0.554908 
0.564105 
0.561854 
0.555751 
0.549698 
0.549166 
0.54257 
0.547675 
0.544601 
0.557073 
0.552593 
0.544856 
0.546747 
0.545188 
0.54776 
0.545702 
0.536546 
0.544044 
0.545325 
0.553631 
0.54587 
0.547504 
0.544126 
0.534198 
0.541506 
0.535362 
0.536525 
0.543928 
0.545498 
0.54054 
0.545319 
0.546319 
0.542724 
0.543189 
0.531201 
0.540899 
0.542114 
0.546043 
0.557004 
0.537541 
0.544994 
0.547382 
0.545188 
0.552222 
0.538819 
0.54423 
0.5527 
0.55291 
0.541874 
0.538633 
0.544474 
0.550147 
0.545456 
0.54084 
0.542798 
0.548888 
0.537799 
0.54179 
0.542342 
0.537493 
0.5423 
0.543071 
0.551021 
0.549801 
0.545486 
0.542989 
0.553159 
0.552516 
0.543349 
0.540612 
0.536372 
0.545198 
0.551323 
0.554361 
0.554119 
0.546212 
0.543879 
0.540216 
0.549562 
0.539799 
0.545931 
0.542772 
0.552775 
0.549327 
0.549915 
0.548876 
0.540085 
0.538204 
0.55079 
0.54238 
0.550524 
0.557991 
0.552587 
0.546647 
0.548087 
0.546205 
0.550609 
0.547454 
0.568572 
0.54766 
0.544256 
0.561007 
0.551461 
0.532521 
0.528867 
0.519456 
0.533792 
0.533301 
0.532874 
0.532456 
0.533824 
0.535478 
0.536367 
0.535448 
0.519601 
0.519454 
0.520332 
0.527604 
0.528093 
0.528385 
0.525714 
0.537765 
0.539593 
0.532457 
0.523468 
0.527827 
0.527046 
0.531344 
0.527215 
0.52186 
0.527859 
0.534876 
0.532349 
0.520928 
0.51529 
0.513705 
0.52181 
0.520403 
0.521732 
0.535442 
0.535072 
0.527815 
0.532546 
0.519604 
0.519869 
0.514361 
0.514264 
0.528772 
0.519128 
0.525601 
0.531122 
0.532138 
0.533178 
0.515671 
0.521648 
0.512177 
0.51274 
0.514424 
0.517431 
0.529661 
0.530469 
0.535755 
0.530219 
0.528907 
0.520228 
0.522764 
0.525938 
0.52595 
0.52941 
0.525282 
0.529619 
0.523405 
0.536803 
0.524006 
0.52125 
0.523108 
0.518528 
0.523438 
0.528882 
0.52441 
0.537088 
0.526428 
0.53132 
0.521086 
0.52577 
0.530919 
0.526669 
0.52873 
0.537661 
0.530128 
0.530852 
0.538051 
0.537526 
0.537692 
0.538134 
0.526902 
0.523424 
0.531393 
0.538169 
0.537713 
0.536828 
0.53888 
0.542167 
0.514511 
0.495357 
0.499898 
0.497495 
0.506631 
0.506229 
0.517615 
0.51664 
0.513854 
0.515343 
0.501515 
0.482437 
0.493469 
0.496625 
0.499013 
0.502261 
0.505743 
0.507332 
0.513035 
0.511043 
0.505499 
0.493253 
0.487474 
0.492009 
0.492473 
0.498828 
0.506007 
0.516092 
0.501433 
0.511931 
0.493961 
0.496229 
0.493996 
0.495479 
0.495399 
0.49972 
0.504998 
0.511292 
0.506543 
0.506661 
0.492096 
0.484721 
0.488228 
0.485792 
0.494734 
0.492323 
0.49945 
0.508431 
0.515576 
0.51823 
0.485311 
0.484549 
0.491626 
0.482413 
0.497509 
0.492673 
0.504859 
0.511976 
0.517121 
0.52179 
0.492076 
0.492652 
0.486727 
0.502826 
0.497766 
0.496453 
0.507932 
0.515506 
0.510217 
0.512172 
0.505988 
0.490813 
0.487709 
0.496537 
0.50442 
0.501784 
0.505303 
0.506549 
0.511465 
0.514611 
0.502639 
0.491856 
0.496616 
0.502948 
0.504419 
0.507403 
0.513932 
0.497587 
0.499419 
0.523486 
0.503699 
0.507954 
0.501545 
0.49696 
0.490983 
0.512242 
0.516115 
0.514388 
0.505149 
0.516754 
0.45465 
0.461562 
0.454138 
0.463544 
0.47191 
0.477632 
0.488056 
0.491023 
0.495648 
0.494414 
0.454015 
0.444501 
0.449365 
0.454286 
0.46242 
0.468076 
0.483117 
0.491696 
0.492103 
0.496216 
0.446265 
0.443451 
0.440885 
0.442084 
0.450279 
0.461523 
0.485458 
0.48628 
0.490581 
0.493377 
0.439886 
0.437023 
0.442687 
0.443356 
0.450466 
0.466235 
0.477141 
0.489663 
0.489621 
0.491578 
0.44582 
0.441536 
0.445183 
0.440546 
0.449753 
0.458714 
0.472294 
0.47762 
0.481489 
0.494 
0.446548 
0.443409 
0.440655 
0.436566 
0.447219 
0.459984 
0.470328 
0.487142 
0.484954 
0.498181 
0.440035 
0.439902 
0.44856 
0.446651 
0.452143 
0.458127 
0.471012 
0.47432 
0.479883 
0.496445 
0.449822 
0.445067 
0.441952 
0.445926 
0.458971 
0.457008 
0.479723 
0.475515 
0.490725 
0.49724 
0.457898 
0.45415 
0.447481 
0.462784 
0.470652 
0.470452 
0.477919 
0.484466 
0.488486 
0.503785 
0.472565 
0.457006 
0.459333 
0.456886 
0.475133 
0.472689 
0.484095 
0.493855 
0.488567 
0.499786 
1.00245 
0.376672 
0.402364 
0.416187 
0.424883 
0.437334 
0.446005 
0.452661 
0.458359 
0.469532 
0.849328 
0.352164 
0.375858 
0.408803 
0.410319 
0.420726 
0.444987 
0.446612 
0.459005 
0.4725 
0.856747 
0.35441 
0.372997 
0.386055 
0.409928 
0.427186 
0.42713 
0.443966 
0.459398 
0.461391 
0.815783 
0.345662 
0.371753 
0.384262 
0.403462 
0.42387 
0.428461 
0.437801 
0.452963 
0.457251 
0.807057 
0.33722 
0.36285 
0.378841 
0.395592 
0.412853 
0.420424 
0.438915 
0.45003 
0.462164 
0.803426 
0.332077 
0.36793 
0.373107 
0.39803 
0.410058 
0.420158 
0.441658 
0.449722 
0.463913 
0.816213 
0.335454 
0.354893 
0.381911 
0.381077 
0.402448 
0.419487 
0.443619 
0.457983 
0.467572 
0.834754 
0.352652 
0.365048 
0.385456 
0.393266 
0.419113 
0.427558 
0.443828 
0.456746 
0.475806 
0.885652 
0.358213 
0.380462 
0.397427 
0.40813 
0.428536 
0.434517 
0.441316 
0.455355 
0.47562 
0.993259 
0.377656 
0.393427 
0.410528 
0.42223 
0.43329 
0.438049 
0.455141 
0.465964 
0.473165 
1.06627 
0.81474 
0.673265 
0.341306 
0.370771 
0.383389 
0.398174 
0.421079 
0.427047 
0.43821 
0.544261 
0.440226 
0.528082 
0.318595 
0.343417 
0.37378 
0.384657 
0.405732 
0.420007 
0.434862 
0.53337 
0.455481 
0.503636 
0.310239 
0.336018 
0.365485 
0.37894 
0.402596 
0.423891 
0.42187 
0.504678 
0.416942 
0.492364 
0.296831 
0.332638 
0.35684 
0.373422 
0.394238 
0.407781 
0.425384 
0.513876 
0.410298 
0.492811 
0.290689 
0.327909 
0.35319 
0.370192 
0.387285 
0.40252 
0.418385 
0.526797 
0.445013 
0.499179 
0.290535 
0.325265 
0.353145 
0.375602 
0.387962 
0.399577 
0.420969 
0.529256 
0.438563 
0.518684 
0.294694 
0.330799 
0.348036 
0.372613 
0.387655 
0.409169 
0.424794 
0.549565 
0.46089 
0.50469 
0.29759 
0.337162 
0.352159 
0.380141 
0.393425 
0.417363 
0.432953 
0.507505 
0.430061 
0.528066 
0.315687 
0.343537 
0.370513 
0.38466 
0.409648 
0.41492 
0.432566 
1.05132 
0.796741 
0.653165 
0.337497 
0.358885 
0.381352 
0.394982 
0.415111 
0.429208 
0.442542 
0.928046 
0.524899 
0.527114 
0.744034 
0.628514 
0.317814 
0.345652 
0.365187 
0.38176 
0.398907 
0.461246 
0.0813904 
0.0952618 
0.406085 
0.496726 
0.295822 
0.328727 
0.349281 
0.372698 
0.386909 
0.513766 
0.0788585 
0.0938704 
0.402191 
0.485124 
0.277129 
0.31259 
0.340228 
0.367602 
0.382691 
0.474446 
0.0795837 
0.090127 
0.403584 
0.487135 
0.274077 
0.3073 
0.331389 
0.352734 
0.386957 
0.431909 
0.0791968 
0.0925271 
0.401172 
0.457764 
0.274169 
0.305824 
0.328982 
0.349194 
0.372916 
0.486746 
0.0771582 
0.0924799 
0.401718 
0.463 
0.282931 
0.314889 
0.335163 
0.353076 
0.372532 
0.467815 
0.0793282 
0.0912584 
0.403859 
0.484968 
0.279986 
0.31627 
0.343983 
0.356927 
0.382573 
0.478452 
0.0789192 
0.0888939 
0.416392 
0.474024 
0.280134 
0.319328 
0.353444 
0.368076 
0.389963 
0.452262 
0.0769395 
0.0952242 
0.401636 
0.49876 
0.295767 
0.330111 
0.353094 
0.36953 
0.396616 
0.950792 
0.507648 
0.543781 
0.750898 
0.63028 
0.317433 
0.346492 
0.365915 
0.38354 
0.397047 
0.87089 
0.462569 
0.464215 
0.463403 
0.506656 
0.727343 
0.625747 
0.31772 
0.338797 
0.358435 
0.4553 
0.0729214 
0.0729399 
0.0734219 
0.0848116 
0.368918 
0.479879 
0.292942 
0.329452 
0.348189 
0.449103 
0.0728491 
0.070082 
0.0702161 
0.0854497 
0.378463 
0.447627 
0.27268 
0.301011 
0.332783 
0.447969 
0.0735816 
0.070922 
0.0681062 
0.0851538 
0.370724 
0.459837 
0.264453 
0.2961 
0.331903 
0.43689 
0.0703086 
0.0717406 
0.0729316 
0.0849799 
0.370997 
0.433789 
0.270823 
0.29043 
0.320193 
0.431652 
0.0693999 
0.0700325 
0.0703989 
0.0857587 
0.366744 
0.450005 
0.267497 
0.292684 
0.321777 
0.41836 
0.0735984 
0.0692172 
0.0717447 
0.084169 
0.371491 
0.450334 
0.271049 
0.30006 
0.329958 
0.440355 
0.0764627 
0.073423 
0.067453 
0.088636 
0.377169 
0.459323 
0.280967 
0.303594 
0.333325 
0.456038 
0.0754809 
0.0718565 
0.0730841 
0.0886714 
0.397335 
0.469918 
0.285572 
0.30639 
0.346326 
0.863599 
0.478927 
0.468188 
0.4701 
0.494092 
0.739189 
0.610851 
0.311032 
0.337707 
0.352159 
0.827411 
0.442823 
0.433626 
0.407367 
0.424989 
0.460112 
0.47746 
0.671888 
0.592193 
0.301149 
0.421222 
0.0715459 
0.0701929 
0.0676734 
0.0678972 
0.0691714 
0.0908144 
0.410779 
0.478452 
0.277333 
0.405358 
0.071931 
0.0681467 
0.0634965 
0.0633275 
0.0674888 
0.0796221 
0.372758 
0.469213 
0.271449 
0.432488 
0.0711862 
0.0626693 
0.0641757 
0.0661255 
0.0647052 
0.0813637 
0.37504 
0.450836 
0.264936 
0.401172 
0.0650776 
0.0678548 
0.0664764 
0.0661231 
0.0675957 
0.0806418 
0.373533 
0.450291 
0.254246 
0.410296 
0.0658769 
0.0656958 
0.0636814 
0.0633407 
0.066366 
0.0867029 
0.358476 
0.435466 
0.254963 
0.419931 
0.0665937 
0.0661702 
0.0678876 
0.0650747 
0.064982 
0.0856653 
0.391669 
0.449169 
0.265717 
0.416379 
0.067811 
0.0679492 
0.0673734 
0.0674302 
0.0668753 
0.0876733 
0.372683 
0.46132 
0.273417 
0.383058 
0.0682053 
0.0662712 
0.0677695 
0.0638942 
0.065809 
0.0820552 
0.371987 
0.494596 
0.27759 
0.836484 
0.468066 
0.431071 
0.423597 
0.439799 
0.425537 
0.469311 
0.696348 
0.590601 
0.300698 
0.798956 
0.414431 
0.377331 
0.39123 
0.394498 
0.420783 
0.437748 
0.410628 
0.453663 
0.866153 
0.410835 
0.0619943 
0.0628353 
0.0590857 
0.0614116 
0.0625767 
0.0641806 
0.0601569 
0.0742927 
0.584063 
0.396153 
0.0618412 
0.0601937 
0.0603161 
0.0614874 
0.0616013 
0.0617204 
0.0613498 
0.0764829 
0.575401 
0.395333 
0.061253 
0.0592121 
0.0608162 
0.0619671 
0.0585778 
0.059301 
0.0624465 
0.0803615 
0.526713 
0.35713 
0.0597135 
0.060981 
0.0601207 
0.0611241 
0.0597428 
0.0595998 
0.060809 
0.0759982 
0.551223 
0.382302 
0.0628448 
0.0631233 
0.0579802 
0.0578143 
0.0594627 
0.0636527 
0.0594458 
0.0753622 
0.530954 
0.381681 
0.0643208 
0.061448 
0.0607179 
0.0582376 
0.0582862 
0.0610564 
0.0585634 
0.0762344 
0.532641 
0.393849 
0.0654503 
0.0605665 
0.0619025 
0.0598772 
0.0607147 
0.0595241 
0.0626311 
0.0743626 
0.586635 
0.407057 
0.0654639 
0.0628422 
0.0656557 
0.0605792 
0.0601822 
0.0600944 
0.0630777 
0.0758035 
0.59829 
0.786995 
0.407107 
0.394727 
0.391121 
0.400357 
0.427263 
0.423793 
0.427893 
0.462615 
0.884634 
0.724406 
0.381076 
0.396324 
0.382132 
0.355296 
0.352513 
0.398392 
0.385167 
0.396882 
0.810641 
0.384981 
0.0578259 
0.0572239 
0.0537566 
0.0557413 
0.0573556 
0.058494 
0.0562434 
0.0585302 
0.405445 
0.400565 
0.0576382 
0.0563174 
0.0585658 
0.0563271 
0.0564134 
0.0557765 
0.057151 
0.0569552 
0.407651 
0.350544 
0.0550926 
0.0551497 
0.0530747 
0.0550046 
0.0558235 
0.0564286 
0.0558556 
0.0577617 
0.393379 
0.37826 
0.0556765 
0.0568626 
0.0561655 
0.0558277 
0.0563718 
0.0534815 
0.0575656 
0.0582445 
0.420611 
0.342873 
0.0570899 
0.056013 
0.0553355 
0.0565742 
0.0554178 
0.0578591 
0.0558639 
0.0583516 
0.392089 
0.37277 
0.0573286 
0.0564845 
0.0574134 
0.0575069 
0.0534134 
0.055811 
0.0561667 
0.0550116 
0.380032 
0.381144 
0.0576768 
0.0570885 
0.0561941 
0.0561256 
0.0571651 
0.0555652 
0.055529 
0.0549792 
0.394249 
0.367275 
0.0616925 
0.056305 
0.0602703 
0.0590074 
0.0575664 
0.0566469 
0.0568158 
0.0555351 
0.415614 
0.761996 
0.403559 
0.383987 
0.364339 
0.374874 
0.365751 
0.39122 
0.370907 
0.410129 
0.817167 
0.735943 
0.360947 
0.355889 
0.381532 
0.353809 
0.339627 
0.377052 
0.356832 
0.377607 
0.742904 
0.381951 
0.0523467 
0.051775 
0.0490309 
0.0513997 
0.0519347 
0.0516702 
0.0515387 
0.0550401 
0.373324 
0.339154 
0.0557217 
0.0538705 
0.0496449 
0.0519991 
0.0520011 
0.0522719 
0.0517569 
0.0533613 
0.394648 
0.343911 
0.0553596 
0.0501885 
0.0528473 
0.051671 
0.0518411 
0.0516872 
0.0508729 
0.0528691 
0.32974 
0.345618 
0.0535081 
0.0496268 
0.0496356 
0.0500338 
0.0507595 
0.0505293 
0.0527168 
0.0525995 
0.384705 
0.343535 
0.0533886 
0.0501934 
0.0489519 
0.0513344 
0.0508232 
0.0501151 
0.0491688 
0.0494431 
0.375787 
0.349284 
0.0540049 
0.0524409 
0.0517101 
0.0517049 
0.0504407 
0.0494482 
0.0507673 
0.0500283 
0.37985 
0.371441 
0.0536674 
0.0533836 
0.051957 
0.0532024 
0.0503289 
0.0508565 
0.0485306 
0.0537179 
0.372168 
0.34684 
0.0581805 
0.0521926 
0.0540711 
0.0548488 
0.0504907 
0.0544137 
0.0560442 
0.0556869 
0.394307 
0.731234 
0.394533 
0.379587 
0.359404 
0.338114 
0.361315 
0.351749 
0.374418 
0.401882 
0.75413 
0.666529 
0.359856 
0.354283 
0.324329 
0.343884 
0.334945 
0.344312 
0.346509 
0.340535 
0.684773 
0.359076 
0.0532763 
0.0473746 
0.046206 
0.0476496 
0.0482619 
0.0487759 
0.0497606 
0.0496201 
0.353666 
0.331032 
0.0518153 
0.0482203 
0.0479474 
0.0476885 
0.0482841 
0.0481011 
0.047793 
0.0456214 
0.351221 
0.329007 
0.0506538 
0.0451635 
0.0451851 
0.0460018 
0.0476519 
0.048262 
0.0464723 
0.0488607 
0.338492 
0.314937 
0.0511432 
0.0484949 
0.0476893 
0.0468287 
0.0458242 
0.0477096 
0.0466592 
0.0470075 
0.334247 
0.313863 
0.0509382 
0.0481127 
0.0471966 
0.0474825 
0.0452253 
0.0471414 
0.0478936 
0.0488451 
0.330608 
0.35295 
0.0503537 
0.0501143 
0.0478925 
0.0470539 
0.0462254 
0.0470501 
0.0487808 
0.0491429 
0.349667 
0.336125 
0.0510257 
0.0519733 
0.0467333 
0.0492199 
0.0487644 
0.0478834 
0.0463286 
0.0509339 
0.350129 
0.332415 
0.0510253 
0.0504338 
0.0492952 
0.0499039 
0.0492744 
0.0493718 
0.0472409 
0.04666 
0.360948 
0.69288 
0.354601 
0.34749 
0.321868 
0.339239 
0.335899 
0.326637 
0.336517 
0.34319 
0.692522 
0.594252 
0.330796 
0.315666 
0.304814 
0.295357 
0.329349 
0.317457 
0.323645 
0.339115 
0.688351 
0.342595 
0.0450756 
0.0469557 
0.0471756 
0.044236 
0.0469486 
0.0459304 
0.0439546 
0.0440723 
0.338823 
0.298491 
0.0451804 
0.0425908 
0.0455987 
0.0441935 
0.0432118 
0.0424882 
0.0444914 
0.0457165 
0.341394 
0.334206 
0.0443109 
0.0439525 
0.0436314 
0.045384 
0.0436567 
0.0412745 
0.0432825 
0.0430078 
0.310378 
0.296412 
0.0449465 
0.0440706 
0.0426023 
0.0445208 
0.0426641 
0.0399829 
0.0425245 
0.0419878 
0.284627 
0.306637 
0.0479575 
0.0432621 
0.0420782 
0.0410212 
0.0431778 
0.0442281 
0.0434163 
0.0447028 
0.312987 
0.314998 
0.0469517 
0.0444886 
0.0437649 
0.0438807 
0.0450106 
0.0450624 
0.0453369 
0.0461579 
0.329314 
0.318875 
0.0478454 
0.04685 
0.045553 
0.0442575 
0.0437165 
0.0438227 
0.0426697 
0.0440045 
0.339024 
0.318933 
0.0460847 
0.0468415 
0.0465612 
0.0450634 
0.0455691 
0.0446638 
0.0443663 
0.0456924 
0.344065 
0.627316 
0.320807 
0.345321 
0.322594 
0.318782 
0.310948 
0.311456 
0.323084 
0.3351 
0.649336 
0.609911 
0.294395 
0.30271 
0.288124 
0.299708 
0.302636 
0.312629 
0.300844 
0.31832 
0.587986 
0.322272 
0.0407997 
0.0418706 
0.0408698 
0.0422079 
0.0411077 
0.0427834 
0.0402539 
0.0447406 
0.312966 
0.302759 
0.0407125 
0.0407296 
0.0414464 
0.0424034 
0.0410639 
0.0417901 
0.0410495 
0.0415394 
0.309808 
0.314622 
0.0413179 
0.0413148 
0.0400021 
0.0388554 
0.0376431 
0.037544 
0.038994 
0.0391304 
0.295697 
0.307232 
0.0421807 
0.0406398 
0.0402759 
0.0388424 
0.0385571 
0.0372051 
0.0393118 
0.039223 
0.313658 
0.287574 
0.0440694 
0.0406375 
0.0394391 
0.0382282 
0.0392025 
0.0412195 
0.0403668 
0.0391509 
0.30345 
0.298696 
0.0455446 
0.0430846 
0.0399501 
0.0398299 
0.0414429 
0.0394312 
0.0409066 
0.0397242 
0.303973 
0.314307 
0.0441873 
0.0427043 
0.0411148 
0.0401317 
0.0393998 
0.0391703 
0.0396815 
0.041746 
0.303867 
0.312497 
0.0418869 
0.0402903 
0.0406449 
0.0416387 
0.0393208 
0.0408835 
0.0399896 
0.039132 
0.319826 
0.621703 
0.330027 
0.325981 
0.293108 
0.297252 
0.279955 
0.31739 
0.304619 
0.326238 
0.606568 
0.594518 
0.298783 
0.262481 
0.285641 
0.274381 
0.290238 
0.255503 
0.296628 
0.290849 
0.623429 
0.299777 
0.0402367 
0.036728 
0.0355823 
0.0364762 
0.0366847 
0.0371584 
0.0358645 
0.038057 
0.297581 
0.268671 
0.0401638 
0.0369036 
0.0345719 
0.0355813 
0.0373727 
0.0380745 
0.036 
0.0376631 
0.30037 
0.29902 
0.0361036 
0.0365415 
0.0358711 
0.0342623 
0.036254 
0.036634 
0.0355389 
0.0371737 
0.290586 
0.294422 
0.0380309 
0.0351087 
0.0375606 
0.0344846 
0.0357332 
0.0369992 
0.0351673 
0.0396607 
0.258339 
0.253553 
0.0356902 
0.0357971 
0.0364684 
0.0366472 
0.0364541 
0.0383738 
0.0377792 
0.037771 
0.266357 
0.293476 
0.0385054 
0.0363356 
0.0373452 
0.0357751 
0.0368502 
0.0377358 
0.0362674 
0.0370685 
0.267264 
0.301225 
0.0379758 
0.0365208 
0.0383545 
0.037463 
0.037305 
0.0355393 
0.0369062 
0.0364924 
0.293091 
0.29751 
0.0374914 
0.0381549 
0.0401157 
0.0384997 
0.0380944 
0.0385661 
0.0366849 
0.0362167 
0.284807 
0.588364 
0.308697 
0.277872 
0.311181 
0.254561 
0.28687 
0.289203 
0.287197 
0.306614 
0.581841 
0.561944 
0.264031 
0.26631 
0.300641 
0.279485 
0.285355 
0.278599 
0.269917 
0.272336 
0.578434 
0.291081 
0.0368857 
0.0341616 
0.0309594 
0.0327534 
0.0326951 
0.0335461 
0.0316945 
0.035202 
0.294656 
0.26926 
0.0342209 
0.033232 
0.0332133 
0.0320151 
0.0348472 
0.0315578 
0.0343327 
0.0333929 
0.259363 
0.286794 
0.0343574 
0.0336048 
0.0318077 
0.0325332 
0.0333314 
0.0321868 
0.0324907 
0.0349259 
0.288322 
0.251639 
0.0348447 
0.0344583 
0.0325003 
0.0340747 
0.0334726 
0.0319933 
0.0330382 
0.0343457 
0.28462 
0.259084 
0.0335545 
0.0332212 
0.0314737 
0.0323101 
0.0316921 
0.0334645 