# vtk DataFile Version 3.0
MOAB 4.99 (Alpha)
ASCII
DATASET UNSTRUCTURED_GRID
POINTS 1455 double
0 -1 1
0 1 1
0 -0.6 1
0 -0.2 1
0 0.2 1
0 0.6 1
0 1 -1
0 1 0.6
0 1 0.2
0 1 -0.2
0 1 -0.6
0 -1 -1
0 0.6 -1
0 0.2 -1
0 -0.2 -1
0 -0.6 -1
0 -1 -0.6
0 -1 -0.2
0 -1 0.2
0 -1 0.6
0 -0.4052531952 0.6719438381
0 0.001326739737 0.6398182875
0 0.4084466782 0.6730790076
0 0.671668119 0.4109975243
0 0.6409559612 0.002665308352
0 0.6741562537 -0.4067531861
0 0.4126332896 -0.6703225438
0 0.005823851008 -0.6385848783
0 -0.4033337139 -0.671818987
0 -0.6657077798 -0.40925766
0 -0.6331965555 -5.201324309e-05
0 -0.6677757402 0.4090861353
0 -0.7346057871 0.7362059947
0 0.7360229594 0.7368153064
0 0.7373579087 -0.735415146
0 -0.7338082987 -0.7362153294
0 -0.2405618544 0.2463031768
0 0.2488935914 0.2473010883
0 0.2507661259 -0.2443109294
0 -0.2398134703 -0.2452073142
0 0.004821098151 0.001021505389
10 -1 -1
0.4347826087 -1 -1
0.8695652174 -1 -1
1.304347826 -1 -1
1.739130435 -1 -1
2.173913043 -1 -1
2.608695652 -1 -1
3.043478261 -1 -1
3.47826087 -1 -1
3.913043478 -1 -1
4.347826087 -1 -1
4.782608696 -1 -1
5.217391304 -1 -1
5.652173913 -1 -1
6.086956522 -1 -1
6.52173913 -1 -1
6.956521739 -1 -1
7.391304348 -1 -1
7.826086957 -1 -1
8.260869565 -1 -1
8.695652174 -1 -1
9.130434783 -1 -1
9.565217391 -1 -1
10 -1 1
10 -1 0.6
10 -1 0.2
10 -1 -0.2
10 -1 -0.6
9.565217391 -1 1
9.130434783 -1 1
8.695652174 -1 1
8.260869565 -1 1
7.826086957 -1 1
7.391304348 -1 1
6.956521739 -1 1
6.52173913 -1 1
6.086956522 -1 1
5.652173913 -1 1
5.217391304 -1 1
4.782608696 -1 1
4.347826087 -1 1
3.913043478 -1 1
3.47826087 -1 1
3.043478261 -1 1
2.608695652 -1 1
2.173913043 -1 1
1.739130435 -1 1
1.304347826 -1 1
0.8695652174 -1 1
0.4347826087 -1 1
0.729629442 -1 -0.6635577637
1.097265427 -1 -0.6333359435
1.522135506 -1 -0.6308235067
1.951105291 -1 -0.6130855746
2.386536729 -1 -0.5934161458
2.823859431 -1 -0.586753865
3.259542314 -1 -0.5848398819
3.694634853 -1 -0.584345348
4.129557936 -1 -0.584231999
4.564424969 -1 -0.5842176273
4.999266496 -1 -0.5842326218
5.434093124 -1 -0.5842603478
5.86891044 -1 -0.584284892
6.303722477 -1 -0.5842041234
6.740497682 -1 -0.5872447606
7.17853636 -1 -0.604840092
7.612487836 -1 -0.6249179335
8.043508498 -1 -0.6324969398
8.475051627 -1 -0.6333705128
8.905141927 -1 -0.6320726723
9.274499795 -1 -0.6625696607
9.618080371 -1 0.4534228266
9.605025893 -1 0.005759502745
9.602204827 -1 -0.4480684861
9.29127961 -1 0.6570365146
8.891385226 -1 0.5766678087
8.450879826 -1 0.6567623596
8.033893805 -1 0.6725101008
7.609220558 -1 0.6720587385
7.17939841 -1 0.6533893783
6.743151184 -1 0.6327611638
6.305426726 -1 0.6257083233
5.869733142 -1 0.6237509075
5.434706141 -1 0.6232827821
4.999837258 -1 0.6231940531
4.564998272 -1 0.6231910572
4.130157488 -1 0.623202528
3.695301843 -1 0.6232056182
3.260414897 -1 0.6231538348
2.825446968 -1 0.6228035785
2.388159104 -1 0.6259810265
1.950539128 -1 0.6444959038
1.520128153 -1 0.6621228004
1.097390765 -1 0.6595347394
0.7310877198 -1 0.679806638
0.4044857632 -1 -0.4489170224
0.4175823302 -1 0.008909367834
0.4057227558 -1 0.4613044543
0.8547206088 -1 -0.2424675395
1.314631244 -1 -0.2838449871
1.719928235 -1 -0.2739550436
2.151052546 -1 -0.1902895037
2.602062315 -1 -0.1748569237
3.040983539 -1 -0.1704571464
3.476779265 -1 -0.1691507245
3.911893224 -1 -0.1688163875
4.346837699 -1 -0.1687506767
4.781727085 -1 -0.1687577095
5.216594141 -1 -0.1687794543
5.651465535 -1 -0.1687464498
6.086448901 -1 -0.168331152
6.524679442 -1 -0.1685030003
6.978019961 -1 -0.1788951307
7.417362993 -1 -0.2627111926
7.833175134 -1 -0.2830034261
8.253264074 -1 -0.2852212995
8.680212218 -1 -0.2673173674
9.163547715 -1 -0.2313041368
9.234449674 -1 0.2641354036
8.571256509 -1 0.3532649028
8.22655036 -1 0.357366883
7.824339587 -1 0.3578007366
7.415241621 -1 0.3415264745
6.980163881 -1 0.2559152612
6.527279434 -1 0.2391265816
6.087711896 -1 0.2346751191
5.651918084 -1 0.2334073933
5.21687986 -1 0.2331162518
4.781983676 -1 0.2330731546
4.347099995 -1 0.2330773252
3.912189528 -1 0.2330605574
3.477203671 -1 0.2329123829
3.04194917 -1 0.2321634642
2.602932037 -1 0.2324913253
2.150426899 -1 0.244779401
1.717657025 -1 0.3265783522
1.312396003 -1 0.3326543537
0.8555711239 -1 0.276143407
1.171107499 -1 0.0235605818
1.515325982 -1 0.02644511905
1.850878138 -1 0.02671166497
2.376618449 -1 0.02803107472
2.821981765 -1 0.02983517985
3.259228911 -1 0.03136699407
3.694516422 -1 0.0320014571
4.129505111 -1 0.03214270461
4.564412114 -1 0.03216052339
4.99929619 -1 0.03216306062
5.434214405 -1 0.03224943524
5.869386104 -1 0.03275122766
6.306529918 -1 0.03424188712
6.75253568 -1 0.03691092797
7.284272996 -1 0.04123614861
7.635525476 -1 0.04025475777
8.035800866 -1 0.04038813082
8.434077209 -1 0.05361852586
8.829154758 -1 0.1248441894
10 1 -1
9.565217391 1 -1
9.130434783 1 -1
8.695652174 1 -1
8.260869565 1 -1
7.826086957 1 -1
7.391304348 1 -1
6.956521739 1 -1
6.52173913 1 -1
6.086956522 1 -1
5.652173913 1 -1
5.217391304 1 -1
4.782608696 1 -1
4.347826087 1 -1
3.913043478 1 -1
3.47826087 1 -1
3.043478261 1 -1
2.608695652 1 -1
2.173913043 1 -1
1.739130435 1 -1
1.304347826 1 -1
0.8695652174 1 -1
0.4347826087 1 -1
10 -0.6 -1
10 -0.2 -1
10 0.2 -1
10 0.6 -1
9.276850506 0.661381088 -1
8.908485259 0.6286162415 -1
8.47965234 0.6261570305 -1
8.048994442 0.611135059 -1
7.613416601 0.5928548605 -1
7.176126727 0.5866265669 -1
6.740455053 0.5848138383 -1
6.305364771 0.5843403054 -1
5.87044207 0.5842310322 -1
5.435575165 0.5842174245 -1
5.000733867 0.5842328179 -1
4.565907797 0.5842629665 -1
4.131091728 0.5843051848 -1
3.696282075 0.584347957 -1
3.26147611 0.5842925469 -1
2.824715885 0.5873791941 -1
2.386701371 0.6050580731 -1
1.952692618 0.6253074524 -1
1.523556767 0.6331965912 -1
1.098505812 0.6357601094 -1
0.7316278391 0.6658713023 -1
9.61830436 -0.4545736914 -1
9.606494419 -0.007178640383 -1
9.603750984 0.4471115132 -1
0.7304784797 -0.6762057791 -1
1.098582316 -0.6578505635 -1
1.525075232 -0.6691576773 -1
1.953955476 -0.6706288449 -1
2.385206046 -0.6528753995 -1
2.821873271 -0.6325591071 -1
3.259706569 -0.625609134 -1
3.695429689 -0.623689904 -1
4.130465386 -0.6232402561 -1
4.565335636 -0.6231626964 -1
5.000171249 -0.6231673354 -1
5.435003486 -0.6231853934 -1
5.869842904 -0.6232013996 -1
6.304698284 -0.6232055052 -1
6.739585276 -0.6231545192 -1
7.174553524 -0.6228086196 -1
7.611786261 -0.6260849584 -1
8.044244342 -0.643164859 -1
8.458491102 -0.6513107133 -1
8.893464783 -0.5797488044 -1
9.290025903 -0.6600407766 -1
0.4055501769 0.4505116454 -1
0.4185084188 -0.006113389705 -1
0.405788194 -0.4592719478 -1
9.167747397 0.2269409626 -1
8.6896413 0.2586105465 -1
8.27697214 0.2634724813 -1
7.847381506 0.1873121213 -1
7.397677869 0.1742449114 -1
6.958975659 0.1703372904 -1
6.523214482 0.1691276574 -1
6.088105931 0.1688120712 -1
5.653162441 0.1687503059 -1
5.218273851 0.1687604544 -1
4.783409985 0.1687962356 -1
4.348556862 0.1688391633 -1
3.913692559 0.1688310811 -1
3.478709825 0.1684512141 -1
3.040473377 0.1686905338 -1
2.587075884 0.1792444561 -1
2.147425164 0.2634456463 -1
1.733888106 0.2851179166 -1
1.3188287 0.2888165751 -1
0.8566707613 0.2479287524 -1
9.236583012 -0.2675541231 -1
0.8567689813 -0.2736232806 -1
1.320720246 -0.3368936771 -1
1.737126442 -0.351794602 -1
2.148529043 -0.3397386073 -1
2.584622722 -0.2553417335 -1
3.037783606 -0.2388922461 -1
3.477420478 -0.2345484397 -1
3.913230918 -0.2333249498 -1
4.348269377 -0.2330585899 -1
4.783157257 -0.2330329441 -1
5.218023748 -0.2330543897 -1
5.652901536 -0.2330734538 -1
6.087810722 -0.2330606691 -1
6.522795537 -0.2329176543 -1
6.958043619 -0.2321953235 -1
7.396947647 -0.2327645358 -1
7.844898082 -0.2463621049 -1
8.25635661 -0.3320874254 -1
8.583304075 -0.3504847652 -1
8.839247872 -0.1284648796 -1
8.463653131 -0.0548666705 -1
8.137852294 -0.03650631964 -1
7.621726276 -0.02939240202 -1
7.177911198 -0.03009441439 -1
6.740757324 -0.03141200751 -1
6.305481668 -0.0320096487 -1
5.870495157 -0.03214293643 -1
5.435590394 -0.03215427079 -1
5.00071621 -0.03213266097 -1
4.56584837 -0.03211403379 -1
4.130937429 -0.03217832383 -1
3.695763445 -0.0326477736 -1
3.258596821 -0.03407473449 -1
2.812488897 -0.03657474742 -1
2.280139474 -0.04020912381 -1
1.930008426 -0.03697934944 -1
1.535547774 -0.02962759909 -1
1.177707293 -0.02067984585 -1
10 1 1
10 0.6 1
10 0.2 1
10 -0.2 1
10 -0.6 1
10 1 -0.6
10 1 -0.2
10 1 0.2
10 1 0.6
10 0.4052531952 0.6719438381
10 -0.001326739737 0.6398182875
10 -0.4084466782 0.6730790076
10 -0.671668119 0.4109975243
10 -0.6409559612 0.002665308352
10 -0.6741562537 -0.4067531861
10 -0.4126332896 -0.6703225438
10 -0.005823851008 -0.6385848783
10 0.4033337139 -0.671818987
10 0.6657077798 -0.40925766
10 0.6331965555 -5.201324309e-05
10 0.6677757402 0.4090861353
10 0.7346057871 0.7362059947
10 -0.7360229594 0.7368153064
10 -0.7373579087 -0.735415146
10 0.7338082987 -0.7362153294
10 0.2405618544 0.2463031768
10 -0.2488935914 0.2473010883
10 -0.2507661259 -0.2443109294
10 0.2398134703 -0.2452073142
10 -0.004821098151 0.001021505389
0.4347826087 1 1
0.8695652174 1 1
1.304347826 1 1
1.739130435 1 1
2.173913043 1 1
2.608695652 1 1
3.043478261 1 1
3.47826087 1 1
3.913043478 1 1
4.347826087 1 1
4.782608696 1 1
5.217391304 1 1
5.652173913 1 1
6.086956522 1 1
6.52173913 1 1
6.956521739 1 1
7.391304348 1 1
7.826086957 1 1
8.260869565 1 1
8.695652174 1 1
9.130434783 1 1
9.565217391 1 1
9.276850506 -0.661381088 1
8.908485259 -0.6286162415 1
8.47965234 -0.6261570305 1
8.048994442 -0.611135059 1
7.613416601 -0.5928548605 1
7.176126727 -0.5866265669 1
6.740455053 -0.5848138383 1
6.305364771 -0.5843403054 1
5.87044207 -0.5842310322 1
5.435575165 -0.5842174245 1
5.000733867 -0.5842328179 1
4.565907797 -0.5842629665 1
4.131091728 -0.5843051848 1
3.696282075 -0.584347957 1
3.26147611 -0.5842925469 1
2.824715885 -0.5873791941 1
2.386701371 -0.6050580731 1
1.952692618 -0.6253074524 1
1.523556767 -0.6331965912 1
1.098505812 -0.6357601094 1
0.7316278391 -0.6658713023 1
9.61830436 0.4545736914 1
9.606494419 0.007178640383 1
9.603750984 -0.4471115132 1
[...]
CELL_DATA 9713
SCALARS TALLY_TAG double 1
LOOKUP_TABLE default
0 
0 
0 
0 
0 
0 
0 
0 
0 
0 
0 
0 
0 
0 
0 
0 
0 
0 
0 
0 
0 
0 
0 
0 
0 
0 
0 
0 
0 
0 
0 
0 
0 
0 
0 
0 
0 
0 
0 
0 
0 
0 
0 
0 
0 
0 
0 
0 
0 
0 
0 
0 
0 
0 
0 
0 
0 
0 
0 
0 
0 
0 
0 
0 
0 
0 
0 
0 
0 
0 
0 
0 
0 
0 
0 
0 
0 
0 
0 
0 
0 
0 
0 
0 
0 
0 
0 
0 
0 
0 
0 
0 
0 
0 
0 
0 
0 
0 
0 
0 
0 
0 
0 
0 
0 
0 
0 
0 
0 
0 
0 
0 
0 
0 
0 
0 
0 
0 
0 
0 
0 
0 
0 
0 
0 
0 
0 
0 
0 
0 
0 
0 
0 
0 
0 
0 
0 
0 
0 
0 
0 
0 
0 
0 
0 
0 
0 
0 
0 
0 
0 
0 
0 
0 
0 
0 
0 
0 
0 
0 
0 
0 
0 
0 
0 
0 
0 
0 
0 
0 
0 
0 
0 
0 
0 
0 
0 
0 
0 
0 
0 
0 
0 
0 
0 
0 
0 
0 
0 
0 
0 
0 
0 
0 
0 
0 
0 
0 
0 
0 
0 
0 
0 
0 
0 
0 
0 
0 
0 
0 
0 
0 
0 
0 
0 
0 
0 
0 
0 
0 
0 
0 
0 
0 
0 
0 
0 
0 
0 
0 
0 
0 
0 
0 
0 
0 
0 
0 
0 
0 
0 
0 
0 
0 
0 
0 
0 
0 
0 
0 
0 
0 
0 
0 
0 
0 
0 
0 
0 
0 
0 
0 
0 
0 
0 
0 
0 
0 
0 
0 
0 
0 
0 
0 
0 
0 
0 
0 
0 
0 
0 
0 
0 
0 
0 
0 
0 
0 
0 
0 
0 
0 
0 
0 
0 
0 
0 
0 
0 
0 
0 
0 
0 
0 
0 
0 
0 
0 
0 
0 
0 
0 
0 
0 
0 
0 
0 
0 
0 
0 
0 
0 
0 
0 
0 
0 
0 
0 
0 
0 
0 
0 
0 
0 
0 
0 
0 
0 
0 
0 
0 
0 
0 
0 
0 
0 
0 
0 
0 
0 
0 
0 
0 
0 
0 
0 
0 
0 
0 
0 
0 
0 
0 
0 
0 
0 
0 
0 
0 
0 
0 
0 
0 
0 
0 
0 
0 
0 
0 
0 
0 
0 
0 
0 
0 
0 
0 
0 
0 
0 
0 
0 
0 
0 
0 
0 
0 
0 
0 
0 
0 
0 
0 
0 
0 
0 
0 
0 
0 
0 
0 
0 
0 
0 
0 
0 
0 
0 
0 
0 
0 
0 
0 
0 
0 
0 
0 
0 
0 
0 
0 
0 
0 
0 
0 
0 
0 
0 
0 
0 
0 
0 
0 
0 
0 
0 
0 
0 
0 
0 
0 
0 
0 
0 
0 
0 
0 
0 
0 
0 
0 
0 
0 
0 
0 
0 
0 
0 
0 
0 
0 
0 
0 
0 
0 
0 
0 
0 
0 
0 
0 
0 
0 
0 
0 
0 
0 
0 
0 
0 
0 
0 
0 
0 
0 
0 
0 
0 
0 
0 
0 
0 
0 
0 
0 
0 
0 
0 
0 
0 
0 
0 
0 
0 
0 
0 
0 
0 
0 
0 
0 
0 
0 
0 
0 
0 
0 
0 
0 
0 
0 
0 
0 
0 
0 
0 
0 
0 
0 
0 
0 
0 
0 
0 
0 
0 
0 
0 
0 
0 
0 
0 
0 
0 
0 
0 
0 
0 
0 
0 
0 
0 
0 
0 
0 
0 
0 
0 
0 
0 
0 
0 
0 
0 
0 
0 
0 
0 
0 
0 
0 
0 
0 
0 
0 
0 
0 
0 
0 
0 
0 
0 
0 
0 
0 
0 
0 
0 
0 
0 
0 
0 
0 
0 
0 
0 
0 
0 
0 
0 
0 
0 
0 
0 
0 
0 
0 
0 
0 
0 
0 
0 
0 
0 
0 
0 
0 
0 
0 
0 
0 
0 
0 
0 
0 
0 
0 
0 
0 
0 
0 
0 
0 
0 
0 
0 
0 
0 
0 
0 
0 
0 
0 
0 
0 
0 
0 
0 
0 
0 
0 
0 
0 
0 
0 
0 
0 
0 
0 
0 
0 
0 
0 
0 
0 
0 
0 
0 
0 
0 
0 
0 
0 
0 
0 
0 
0 
0 
0 
0 
0 
0 
0 
0 
0 
0 
0 
0 
0 
0 
0 
0 
0 
0 
0 
0 
0 
0 
0 
0 
0 
0 
0 
0 
0 
0 
0 
0 
0 
0 
0 
0 
0 
0 
0 
0 
0 
0 
0 
0 
0 
0 
0 
0 
0 
0 
0 
0 
0 
0 
0 
0 
0 
0 
0 
0 
0 
0 
0 
0 
0 
0 
0 
0 
0 
0 
0 
0 
0 
0 
0 
0 
0 
0 
0 
0 
0 
0 
0 
0 
0 
0 
0 
0 
0 
0 
0 
0 
0 
0 
0 
0 
0 
0 
0 
0 
0 
0 
0 
0 
0 
0 
0 
0 
0 
0 
0 
0 
0 
0 
0 
0 
0 
0 
0 
0 
0 
0 
0 
0 
0 
0 
0 
0 
0 
0 
0 
0 
0 
0 
0 
0 
0 
0 
0 
0 
0 
0 
0 
0 
0 
0 
0 
0 
0 
0 
0 
0 
0 
0 
0 
0 
0 
0 
0 
0 
0 
0 
0 
0 
0 
0 
0 
0 
0 
0 
0 
0 
0 
0 
0 
0 
0 
0 
0 
0 
0 
0 
0 
0 
0 
0 
0 
0 
0 
0 
0 
0 
0 
0 
0 
0 
0 
0 
0 
0 
0 
0 
0 
0 
0 
0 
0 
0 
0 
0 
0 
0 
0 
0 
0 
0 
0 
0 
0 
0 
0 
0 
0 
0 
0 
0 
0 
0 
0 
0 
0 
0 
0 
0 
0 
0 
0 
0 
0 
0 
0 
0 
0 
0 
0 
0 
0 
0 
0 
0 
0 
0 
0 
0 
0 
0 
0 
0 
0 
0 
0 
0 
0 
0 
0 
0 
0 
0 
0 
0 
0 
0 
0 
0 
0 
0 
0 
0 
0 
0 
0 
0 
0 
0 
0 
0 
0 
0 
0 
0 
0 
0 
0 
0 
0 
0 
0 
0 
0 
0 
0 
0 
0 
0 
0 
0 
0 
0 
0 
0 
0 
0 
0 
0 
0 
0 
0 
0 
0 
0 
0 
0 
0 
0 
0 
0 
0 
0 
0 
0 
0 
0 
0 
0 
0 
0 
0 
0 
0 
0 
0 
0 
0 
0 
0 
0 
0 
0 
0 
0 
0 
0 
0 
0 
0 
0 
0 
0 
0 
0 
0 
0 
0 
0 
0 
0 
0 
0 
0 
0 
0 
0 
0 
0 
0 
0 
0 
0 
0 
0 
0 
0 
0 
0 
0 
0 
0 
0 
0 
0 
0 
0 
0 
0 
0 
0 
0 
0 
0 
0 
0 
0 
0 
0 
0 
0 
0 
0 
0 
0 
0 
0 
0 
0 
0 
0 
0 
0 
0 
0 
0 
0 
0 
0 
0 
0 
0 
0 
0 
0 
0 
0 
0 
0 
0 
0 
0 
0 
0 
0 
0 
0 
0 
0 
0 
0 
0 
0 
0 
0 
0 
0 
0 
0 
0 
0 
0 
0 
0 
0 
0 
0 
0 
0 
0 
0 
0 
0 
0 
0 
0 
0 
0 
0 
0 
0 
0 
0 
0 
0 
0 
0 
0 
0 
0 
0 
0 
0 
0 
0 
0 
0 
0 
0 
0 
0 
0 
0 
0 
0 
0 
0 
0 
0 
0 
0 
0 
0 
0 
0 
0 
0 
0 
0 
0 
0 
0 
0 
0 
0 
0 
0 
0 
0 
0 
0 
0 
0 
0 
0 
0 
0 
0 
0 
0 
0 
0 
0 
0 
0 
0 
0 
0 
0 
0 
0 
0 
0 
0 
0 
0 
0 
0 
0 
0 
0 
0 
0 
0 
0 
0 
0 
0 
0 
0 
0 
0 
0 
0 
0 
0 
0 
0 
0 
0 
0 
0 
0 
0 
0 
0 
0 
0 
0 
0 
0 
0 
0 
0 
0 
0 
0 
0 
0 
0 
0 
0 
0 
0 
0 
0 
0 
0 
0 
0 
0 
0 
0 
0 
0 
0 
0 
0 
0 
0 
0 
0 
0 
0 
0 
0 
0 
0 
0 
0 
0 
0 
0 
0 
0 
0 
0 
0 
0 
0 
0 
0 
0 
0 
0 
0 
0 
0 
0 
0 
0 
0 
0 
0 
0 
0 
0 
0 
0 
0 
0 
0 
0 
0 
0 
0 
0 
0 
0 
0 
0 
0 
0 
0 
0 
0 
0 
0 
0 
0 
0 
0 
0 
0 
0 
0 
0 
0 
0 
0 
0 
0 
0 
0 
0 
0 
0 
0 
0 
0 
0 
0 
0 
0 
0 
0 
0 
0 
0 
0 
0 
0 
0 
0 
0 
0 
0 
0 
0 
0 
0 
0 
0 
0 
0 
0 
0 
0 
0 
0 
0 
0 
0 
0 
0 
0 
0 
0 
0 
0 
0 
0 
0 
0 
0 
0 
0 
0 
0 
0 
0 
0 
0 
0 
0 
0 
0 
0 
0 
0 
0 
0 
0 
0 
0 
0 
0 
0 
0 
0 
0 
0 
0 
0 
0 
0 
0 
0 
0 
0 
0 
0 
0 
0 
0 
0 
0 
0 
0 
0 
0 
0 
0 
0 
0 
0 
0 
0 
0 
0 
0 
0 
0 
0 
0 
0 
0 
0 
0 
0 
0 
0 
0 
0 
0 
0 
0 
0 
0 
0 
0 
0 
0 
0 
0 
0 
0 
0 
0 
0 
0 
0 
0 
0 
0 
0 
0 
0 
0 
0 
0 
0 
0 
0 
0 
0 
0 
0 
0 
0 
0 
0 
0 
0 
0 
0 
0 
0 
0 
0 
0 
0 
0 
0 
0 
0 
0 
0 
0 
0 
0 
0 
0 
0 
0 
0 
0 
0 
0 
0 
0 
0 
0 
0 
0 
0 
0 
0 
0 
0 
0 
0 
0 
0 
0 
0 
0 
0 
0 
0 
0 
0 
0 
0 
0 
0 
0 
0 
0 
0 
0 
0 
0 
0 
0 
0 
0 
0 
0 
0 
0 
0 
0 
0 
0 
0 
0 
0 
0 
0 
0 
0 
0 
0 
0 
0 
0 
0 
0 
0 
0 
0 
0 
0 
0 
0 
0 
0 
0 
0 
0 
0 
0 
0 
0 
0 
0 
0 
0 
0 
0 
0 
0 
0 
0 
0 
0 
0 
0 
0 
0 
0 
0 
0 
0 
0 
0 
0 
0 
0 
0 
0 
0 
0 
0 
0 
0 
0 
0 
0 
0 
0 
0 
0 
0 
0 
0 
0 
0 
0 
0 
0 
0 
0 
0 
0 
0 
0 
0 
0 
0 
0 
0 
0 
0 
0 
0 
0 
0 
0 
0 
0 
0 
0 
0 
0 
0 
0 
0 
0 
0 
0 
0 
0 
0 
0 
0 
0 
0 
0 
0 
0 
0 
0 
0 
0 
0 
0 
0 
0 
0 
0 
0 
0 
0 
0 
0 
0 
0 
0 
0 
0 
0 
0 
0 
0 
0 
0 
0 
0 
0 
0 
0 
0 
0 
0 
0 
0 
0 
0 
0 
0 
0 
0 
0 
0 
0 
0 
0 
0 
0 
0 
0 
0 
0 
0 
0 
0 
0 
0 
0 
0 
0 
0 
0 
0 
0 
0 
0 
0 
0 
0 
0 
0 
0 
0 
0 
0 
0 
0 
0 
0 
0 
0 
0 
0 
0 
0 
0 
0 
0 
0 
0 
0 
0 
0 
0 
0 
0 
0 
0 
0 
0 
0 
0 
0 
0 
0 
0 
0 
0 
0 
0 
0 
0 
0 
0 
0 
0 
0 
0 
0 
0 
0 
0 
0 
0 
0 
0 
0 
0 
0 
0 
0 
0 
0 
0 
0 
0 
0 
0 
0 
0 
0 
0 
0 
0 
0 
0 
0 
0 
0 
0 
0 
0 
0 
0 
0 
0 
0 
0 
0 
0 
0 
0 
0 
0 
0 
0 
0 
0 
0 
0 
0 
0 
0 
0 
0 
0 
0 
0 
0 
0 
0 
0 
0 
0 
0 
0 
0 
0 
0 
0 
0 
0 
0 
0 
0 
0 
0 
0 
0 
0 
0 
0 
0 
0 
0 
0 
0 
0 
0 
0 
0 
0 
0 
0 
0 
0 
0 
0 
0 
0 
0 
0 
0 
0 
0 
0 
0 
0 
0 
0 
0 
0 
0 
0 
0 
0 
0 
0 
0 
0 
0 
0 
0 
0 
0 
0 
0 
0 
0 
0 
0 
0 
0 
0 
0 
0 
0 
0 
0 
0 
0 
0 
0 
0 
0 
0 
0 
0 
0 
0 
0 
0 
0 
0 
0 
0 
0 
0 
0 
0 
0 
0 
0 
0 
0 
0 
0 
0 
0 
0 
0 
0 
0 
0 
0 
0 
0 
0 
0 
0 
0 
0 
0 
0 
0 
0 
0 
0 
0 
0 
0 
0 
0 
0 
0 
0 
0 
0 
0 
0 
0 
0 
0 
0 
0 
0 
0 
0 
0 
0 
0 
0 
0 
0 
0 
0 
0 
0 
0 
0 
0 
0 
0 
0 
0 
0 
0 
0 
0 
0 
0 
0 
0 
0 
0 
0 
0 
0 
0 
0 
0 
0 
0 
0 
0 
0 
0 
0 
0 
0 
0 
0 
0 
0 
0 
0 
0 
0 
0 
0 
0 
0 
0 
0 
0 
0 
0 
0 
0 
0 
0 
0 
0 
0 
0 
0 
0 
0 
0 
0 
0 
0 
0 
0 
0 
0 
0 
0 
0 
0 
0 
0 
0 
0 
0 
0 
0 
0 
0 
0 
0 
0 
0 
0 
0 
0 
0 
0 
0 
0 
0 
0 
0 
0 
0 
0 
0 
0 
0 
0 
0 
0 
0 
0 
0 
0 
0 
0 
0 
0 
0 
0 
0 
0 
0 
0 
0 
0 
0 
0 
0 
0 
0 
0 
0 
0 
0 
0 
0 
0 
0 
0 
0 
0 
0 
0 
0 
0 
0 
0 
0 
0 
0 
0 
0 
0 
0 
0 
0 
0 
0 
0 
0 
0 
0 
0 
0 
0 
0 
0 
0 
0 
0 
0 
0 
0 
0 
0 
0 
0 
0 
0 
0 
0 
0 
0 
0 
0 
0 
0 
0 
0 
0 
0 
0 
0 
0 
0 
0 
0 
0 
0 
0 
0 
0 
0 
0 
0 
0 
0 
0 
0 
0 
0 
0 
0 
0 
0 
0 
0 
0 
0 
0 
0 
0 
0 
0 
0 
0 
0 
0 
0 
0 
0 
0 
0 
0 
0 
0 
0 
0 
0 
0 
0 
0 
0 
0 
0 
0 
0 
0 
0 
0 
0 
0 
0 
0 
0 
0 
0 
0 
0 
0 
0 
0 
0 
0 
0 
0 
0 
0 
0 
0 
0 
0 
0 
0 
0 
0 
0 
0 
0 
0 
0 
0 
0 
0 
0 
0 
0 
0 
0 
0 
0 
0 
0 
0 
0 
0 
0 
0 
0 
0 
0 
0 
0 
0 
0 
0 
0 
0 
0 
0 
0 
0 
0 
0 
0 
0 
0 
0 
0 
0 
0 
0 
0 
0 
0 
0 
0 
0 
0 
0 
0 
0 
0 
0 
0 
0 
0 
0 
0 
0 
0 
0 
0 
0 
0 
0 
0 
0 
0 
0 
0 
0 
0 
0 
0 
0 
0 
0 
0 
0 
0 
0 
0 
0 
0 
0 
0 
0 
0 
0 
0 
0 
0 
0 
0 
0 
0 
0 
0 
0 
0 
0 
0 
0 
0 
0 
0 
0 
0 
0 
0 
0 
0 
0 
0 
0 
0 
0 
0 
0 
0 
0 
0 
0 
0 
0 
0 
0 
0 
0 
0 
0 
0 
0 
0 
0 
0 
0 
0 
0 
0 
0 
0 
0 
0 
0 
0 
0 
0 
0 
0 
0 
0 
0 
0 
0 
0 
0 
0 
0 
0 
0 
0 
0 
0 
0 
0 
0 
0 
0 
0 
0 
0 
0 
0 
0 
0 
0 
0 
0 
0 
0 
0 
0 
0 
0 
0 
0 
0 
0 
0 
0 
0 
0 
0 
0 
0 
0 
0 
0 
0 
0 
0 
0 
0 
0 
0 
0 
0 
0 
0 
0 
0 
0 
0 
0 
0 
0 
0 
0 
0 
0 
0 
0 
0 
0 
0 
0 
0 
0 
0 
0 
0 
0 
0 
0 
0 
0 
0 
0 
0 
0 
0 
0 
0 
0 
0 
0 
0 
0 
0 
0 
0 
0 
0 
0 
0 
0 
0 
0 
0 
0 
0 
0 
0 
0 
0 
0 
0 
0 
0 
0 
0 
0 
0 
0 
0 
0 
0 
0 
0 
0 
0 
0 
0 
0 
0 
0 
0 
0 
0 
0 
0 
0 
0 
0 
0 
0 
0 
0 
0 
0 
0 
0 
0 
0 
0 
0 
0 
0 
0 
0 
0 
0 
0 
0 
0 
0 
0 
0 
0 
0 
0 
0 
0 
0 
0 
0 
0 
0 
0 
0 
0 
0 
0 
0 
0 
0 
0 
0 
0 
0 
0 
0 
0 
0 
0 
0 
0 
0 
0 
0 
0 
0 
0 
0 
0 
0 
0 
0 
0 
0 
0 
0 
0 
0 
0 
0 
0 
0 
0 
0 
0 
0 
0 
0 
0 
0 
0 
0 
0 
0 
0 
0 
0 
0 
0 
0 
0 
0 
0 
0 
0 
0 
0 
0 
0 
0 
0 
0 
0 
0 
0 
0 
0 
0 
0 
0 
0 
0 
0 
0 
0 
0 
0 
0 
0 
0 
0 
0 
0 
0 
0 
0 
0 
0 
0 
0 
0 
0 
0 
0 
0 
0 
0 
0 
0 
0 
0 
0 
0 
0 
0 
0 
0 
0 
0 
0 
0 
0 
0 
0 
0 
0 
0 
0 
0 
0 
0 
0 
0 
0 
0 
0 
0 
0 
0 
0 
0 
0 
0 
0 
0 
0 
0 
0 
0 
0 
0 
0 
0 
0 
0 
0 
0 
0 
0 
0 
0 
0 
0 
0 
0 
0 
0 
0 
0 
0 
0 
0 
0 
0 
0 
0 
0 
0 
0 
0 
0 
0 
0 
0 
0 
0 
0 
0 
0 
0 
0 
0 
0 
0 
0 
0 
0 
0 
0 
0 
0 
0 
0 
0 
0 
0 
0 
0 
0 
0 
0 
0 
0 
0 
0 
0 
0 
0 
0 
0 
0 
0 
0 
0 
0 
0 
0 
0 
0 
0 
0 
0 
0 
0 
0 
0 
0 
0 
0 
0 
0 
0 
0 
0 
0 
0 
0 
0 
0 
0 
0 
0 
0 
0 
0 
0 
0 
0 
0 
0 
0 
0 
0 
0 
0 
0 
0 
0 
0 
0 
0 
0 
0 
0 
0 
0 
0 
0 
0 
0 
0 
0 
0 
0 
0 
0 
0 
0 
0 
0 
0 
0 
0 
0 
0 
0 
0 
0 
0 
0 
0 
0 
0 
0 
0 
0 
0 
0 
0 
0 
0 
0 
0 
0 
0 
0.4331698306 
0.4172042976 
0.6278443149 
0.3755376483 
0.5437745422 
0.607593483 
0.6259872606 
0.6103087923 
0.4534897978 
0.4702420688 
0.4491740634 
0.4818241633 
0.4533026849 
0.6007091753 
0.5832168604 
0.5830603624 
0.5683549008 
0.5866063456 
0.4016454485 
0.412915663 
0.3370268031 
0.4189473869 
0.4224750645 
0.6006957881 
0.5962941663 
0.6090628163 
0.3737327222 
0.3566079789 
0.3758695871 
0.371528972 
0.360618072 
0.3643810813 
0.3830053092 
0.3855836186 
0.606931408 
0.6042924449 
0.3131092384 
0.5963279724 
0.6047961922 
0.5804270941 
0.6025254523 
0.6146410251 
0.5913833284 
0.4083802497 
0.3976314915 
0.4208671304 
0.4047924187 
0.4191968348 
0.4178170357 
0.6108985304 
0.6148459976 
0.6244638548 
0.6183474025 
0.6081460273 
0.6135400546 
0.6276762577 
0.2960576474 
0.6110800514 
0.3441652533 
0.6080761463 
0.5997481871 
0.6097755955 
0.6349390133 
0.6254055287 
0.6028247272 
0.6068681721 
0.6045379765 
0.5622674141 
0.5813545923 
0.5907767826 
0.6000991628 
0.5915917584 
0.5771620659 
0.6206350355 
0.6164183383 
0.6230768382 
0.5680773468 
0.623934975 
0.6226033698 
0.6283030516 
0.6217308612 
0.6033767622 
0.5993499352 
0.6126531348 
0.6078314822 
0.6193203529 
0.5568665576 
0.6089304011 
0.6149709496 
0.6040705074 
0.6139479923 
0.4354647335 
0.4192186482 
0.453883307 
0.4020042429 
0.4173852406 
0.4321303042 
0.4401174602 
0.4462406072 
0.3261127464 
0.4283926186 
0.4258304504 
0.4288326153 
0.436880957 
0.4318040522 
0.4383436786 
0.4135642509 
0.4220230786 
0.4700696191 
0.4557975195 
0.4647993693 
0.4124867585 
0.4010259652 
0.4398993426 
0.4225589006 
0.4249730206 
0.4249662608 
0.6115822729 
0.6228965582 
0.6282287325 
0.6076663266 
0.6147233453 
0.5995571136 
0.6124932503 
0.4647163609 
0.4752716366 
0.4516167941 
0.482875845 
0.4703989279 
0.4877309328 
0.5401587862 
0.6262727789 
0.4998844298 
0.5234325724 
0.5107192429 
0.5241166455 
0.3524528359 
0.5293093249 
0.3077561938 
0.5386525854 
0.5320931223 
0.4829131454 
0.4799860259 
0.4803901449 
0.4747907972 
0.5782602699 
0.5918559313 
0.5846226645 
0.5774024958 
0.3614465861 
0.3656051611 
0.3885544042 
0.3822352175 
0.3746222467 
0.6217958904 
0.6160403408 
0.6119697488 
0.616435837 
0.6084358317 
0.347198065 
0.4011211372 
0.6251675419 
0.6071530489 
0.612408986 
0.6023279112 
0.389554836 
0.3670705216 
0.3764032155 
0.4144874123 
0.3549590945 
0.3568762856 
0.3611234796 
0.3778822356 
0.3812980237 
0.3728835189 
0.3897630508 
0.4139231674 
0.4074419601 
0.3976159243 
0.4134433758 
0.4166041912 
0.3713481475 
0.631894039 
0.6132003863 
0.6219514767 
0.6007240446 
0.4159822111 
0.6176808699 
0.6161705763 
0.6113462312 
0.4171027427 
0.6094303833 
0.6226646837 
0.3973039211 
0.54706032 
0.5688875274 
0.4047842644 
0.5749506513 
0.5785181691 
0.5922378443 
0.6080952881 
0.6192960007 
0.6180827003 
0.6140991639 
0.6099741379 
0.3801679014 
0.6181503477 
0.6082661056 
0.6081252212 
0.6206693888 
0.6277855863 
0.3920627129 
0.6159805485 
0.6205604512 
0.6037499291 
0.5730277558 
0.590672966 
0.5938174355 
0.5873544596 
0.4641096449 
0.4731379151 
0.4852154584 
0.4870154188 
0.4989581661 
0.4911747478 
0.4902692696 
0.6015856274 
0.5980117066 
0.6178684446 
0.6149434762 
0.4667973088 
0.4609213755 
0.4498208185 
0.4473284978 
0.4994308458 
0.496676309 
0.4024259249 
0.5009919655 
0.4919488937 
0.4916485007 
0.4173451901 
0.3295574795 
0.3334620855 
0.3170398495 
0.326943353 
0.3200582815 
0.528435644 
0.5313809201 
0.5499002049 
0.53083355 
0.5263201976 
0.5199560837 
0.5285587081 
0.5182471318 
0.3977972804 
0.537657196 
0.5394486006 
0.515903317 
0.5383049222 
0.5229576564 
0.419807284 
0.5924787955 
0.5930134475 
0.5901439892 
0.5974227569 
0.5869685491 
0.6036464937 
0.5722392518 
0.4137898669 
0.5788021265 
0.586083297 
0.5761482694 
0.5748302846 
0.485064155 
0.4991684907 
0.4858825582 
0.4686322303 
0.4930192055 
0.5544209488 
0.4721165645 
0.5863304232 
0.5772895024 
0.5586330191 
0.5587276519 
0.5522362742 
0.5768555087 
0.578315349 
0.5487395339 
0.5741540009 
0.5621448109 
0.5535291672 
0.5706949728 
0.5651087471 
0.6269489353 
0.6217997169 
0.6259721564 
0.6227841395 
0.6264505967 
0.6173036548 
0.6090913843 
0.6153345205 
0.6114446322 
0.5828350155 
0.5909382592 
0.6088712475 
0.5955747751 
0.6043824573 
0.5954099247 
0.6078457746 
0.592804517 
0.6035079099 
0.6019866793 
0.602756807 
0.3436789234 
0.3482368378 
0.3566688817 
0.3788506307 
0.3703734939 
0.3644626449 
0.3711032512 
0.5972660402 
0.519997469 
0.5955408758 
0.5832842384 
0.5804946899 
0.6009668118 
0.572257277 
0.5657825856 
0.5834986022 
0.4915231282 
0.4931938603 
0.4716664159 
0.4827356891 
0.3979647899 
0.400194287 
0.4001149033 
0.4115075939 
0.4054042848 
0.5695259506 
0.57305212 
0.5824024971 
0.5703566556 
0.5721444348 
0.5604000768 
0.4271567588 
0.4061013742 
0.419683313 
0.422200546 
0.4257247546 
0.4163026314 
0.4108935986 
0.4020683241 
0.4176272102 
0.4168980656 
0.4103051731 
0.4163598805 
0.3958810127 
0.5110096565 
0.4981407308 
0.4970683546 
0.4981731034 
0.4870205077 
0.6222761449 
0.60443037 
0.614070836 
0.5588253548 
0.608645792 
0.4404639582 
0.4513220496 
0.4544400498 
0.4295102654 
0.4450066178 
0.4467909425 
0.4257658526 
0.4678361011 
0.4254202199 
0.428820853 
0.4098811906 
0.4301644582 
0.4322811079 
0.4054838833 
0.4370522032 
0.4244992472 
0.4265910694 
0.4324244027 
0.4750864183 
0.4648222596 
0.4685854791 
0.4551458294 
0.4766167511 
0.492716512 
0.4589445116 
0.62294499 
0.6159162292 
0.6179997782 
0.6165240695 
0.6160561 
0.6212739965 
0.5490316162 
0.6061612934 
0.613093449 
0.6021813433 
0.6158040777 
0.620893752 
0.6245484171 
0.6285402365 
0.6159648849 
0.3376156117 
0.5724419778 
0.3191132356 
0.3187416122 
0.3217951614 
0.4296812844 
0.4234649128 
0.4427377198 
0.4415114152 
0.4422368369 
0.4451299116 
0.2928708087 
0.4353638993 
0.4264308764 
0.447179186 
0.4452955936 
0.5515138907 
0.4162963436 
0.6002682986 
0.556760341 
0.6112841715 
0.6179231541 
0.6234668287 
0.6109521933 
0.3121035643 
0.3336944729 
0.3121774511 
0.3367649002 
0.3166043503 
0.3137928849 
0.3258619876 
0.6188622429 
0.6134302117 
0.5994755276 
0.6099966267 
0.3470406839 
0.35615851 
0.3805514645 
0.3625137269 
0.3731838213 
0.3482039367 
0.3668054646 
0.3529405159 
0.3466591521 
0.5920457294 
0.5768707908 
0.5863591919 
0.5844751626 
0.584297934 
0.5848151849 
0.5816165821 
0.5845290067 
0.6121939063 
0.6106359116 
0.6066184751 
0.5411849381 
0.5935867152 
0.587772422 
0.5925386589 
0.5998678527 
0.5984204305 
0.5491732892 
0.6087289951 
0.5823383064 
0.5951673253 
0.6051073716 
0.6062714559 
0.5999297637 
0.5964414886 
0.5864822052 
0.6127888392 
0.6121879738 
0.609655957 
0.6097473752 
0.5809933689 
0.5911907777 
0.6190018462 
0.611169886 
0.588607312 
0.6053586876 
0.5972339493 
0.5905273318 
0.5828111669 
0.6053601716 
0.5922790721 
0.6033117475 
0.5898964334 
0.4952394267 
0.4725248779 
0.4716430862 
0.4605692322 
0.4299557444 
0.4762390112 
0.5787905467 
0.4642365571 
0.4640674216 
0.4715366965 
0.4825243594 
0.4815009376 
0.4994149541 
0.4575302626 
0.5985536275 
0.4695006698 
0.3678650866 
0.3624038649 
0.3781726898 
0.3847460333 
0.3812634618 
0.3678521857 
0.3551499677 
0.6184859901 
0.6234008534 
0.6188807397 
0.6350651583 
0.6169991135 
0.5973910494 
0.5970678458 
0.5967395967 
0.6079546313 
0.4535706468 
0.4530967895 
0.5780491225 
0.4714949693 
0.4178095603 
0.4529204682 
0.4452344977 
0.4333239904 
0.416700405 
0.4650167404 
0.5392753592 
0.5264590853 
0.5341763294 
0.5437612479 
0.5338861745 
0.615128365 
0.5946532724 
0.606625471 
0.6026513413 
0.5829238162 
0.5817298877 
0.3905711863 
0.4035439634 
0.4133082672 
0.4082898705 
0.3994609632 
0.3948501435 
0.409728026 
0.3219586187 
0.3156572759 
0.341195705 
0.3398995961 
0.3351615946 
0.3137304106 
0.3302441819 
0.3096228105 
0.6050480991 
0.6218476687 
0.605041202 
0.6050047401 
0.6212521592 
0.6036846846 
0.4787695772 
0.4763904032 
0.4840205211 
0.508501631 
0.5915432336 
0.5774385222 
0.6011988 
0.5809369853 
0.5928608348 
0.4767410859 
0.4727584169 
0.5152978918 
0.5151504391 
0.508346757 
0.4956429997 
0.4781901359 
0.5459601496 
0.3899344915 
0.544935878 
0.5288509876 
0.5423097528 
0.5731367147 
0.5417559104 
0.5344899019 
0.5919329828 
0.4997175929 
0.490591711 
0.5013606152 
0.5085816473 
0.4701218195 
0.469043821 
0.3631539904 
0.3304173001 
0.3690958663 
0.3392228671 
0.35139375 
0.5639220269 
0.560118387 
0.5455560202 
0.5740039275 
0.5571884228 
0.6229680493 
0.6064106108 
0.6275739545 
0.6226402067 
0.6249574285 
0.6081557998 
0.6207650358 
0.6188480272 
0.6201231822 
0.5631238848 
0.625453776 
0.5734225142 
0.6224221076 
0.6117180671 
0.622419275 
0.6181226074 
0.6288050261 
0.6237461937 
0.6296973868 
0.6167708123 
0.6192753436 
0.4267764713 
0.4243767866 
0.4132985096 
0.4470352102 
0.4256680635 
0.4320791523 
0.437762783 
0.4009767531 
0.3962589961 
0.3874859929 
0.3774553683 
0.4022049461 
0.5690438085 
0.5570784436 
0.558415065 
0.5624708687 
0.4025323351 
0.40907748 
0.4091937295 
0.4069586328 
0.404495979 
0.4389119907 
0.4231504113 
0.339442807 
0.3363528926 
0.315644578 
0.3172465713 
0.3245677597 
0.3270491268 
0.3289930371 
0.5463076757 
0.5986768673 
0.61029471 
0.6104894795 
0.6015150523 
0.6132979764 
0.6054237314 
0.5953201431 
0.6093613555 
0.6143799435 
0.3168289395 
0.5711867558 
0.3139416997 
0.3091709746 
0.319386458 
0.3153186006 
0.6082840717 
0.6227314284 
0.6197419973 
0.6187740631 
0.608886028 
0.4131930182 
0.4002479725 
0.4146181862 
0.4636882544 
0.4626914236 
0.5790802881 
0.463483511 
0.4671314309 
0.4552390816 
0.4885729333 
0.4752919467 
0.4135523849 
0.4151205906 
0.4316019593 
0.4127061959 
0.4186646943 
0.4007408662 
0.4414841759 
0.4110011962 
0.5699493627 
0.4159909316 
0.4500359806 
0.6292429663 
0.6206451214 
0.6233095457 
0.6214210305 
0.6258350333 
0.5925960475 
0.6010270294 
0.6159550654 
0.6136086492 
0.5637438032 
0.4748249932 
0.4695218716 
0.498242121 
0.5637376662 
0.492544443 
0.3483141598 
0.4861409529 
0.4683340335 
0.4607593538 
0.4684420242 
0.5793240936 
0.5761196518 
0.5933633305 
0.5900194612 
0.580582569 
0.5638619681 
0.5908071251 
0.5991903815 
0.5940463271 
0.5916959191 
0.5861715979 
0.5980966324 
0.6035645539 
0.4049712897 
0.4243436323 
0.4080419868 
0.5788190484 
0.5928515277 
0.5960963227 
0.5749572086 
0.5907140153 
0.580877981 
0.5851282546 
0.58990986 
0.5654319168 
0.6041054564 
0.5986096987 
0.598219462 
0.5983276503 
0.5911490088 
0.4593784152 
0.4590790878 
0.4729339732 
0.6103379004 
0.5965841016 
0.5930228163 
0.6093644394 
0.6209693397 
0.6181377509 
0.6145553677 
0.612462274 
0.4390438782 
0.4899549146 
0.5120130732 
0.4976108477 
0.4923638001 
0.5131965834 
0.4263965871 
0.5023347957 
0.5167129614 
0.4911064127 
0.4967691519 
0.5005705739 
0.4877026256 
0.5437814936 
0.6375385313 
0.6185815139 
0.6020048583 
0.613736875 
0.6187941741 
0.4543762176 
0.4695608519 
0.4663789445 
0.4582314863 
0.4780299099 
0.4729522164 
0.4347409891 
0.4706598934 
0.4614180931 