# vtk DataFile Version 3.0
MOAB 4.99 (Alpha)
ASCII
DATASET UNSTRUCTURED_GRID
POINTS 1455 double
0 -1 1
0 1 1
0 -0.6 1
0 -0.2 1
0 0.2 1
0 0.6 1
0 1 -1
0 1 0.6
0 1 0.2
0 1 -0.2
0 1 -0.6
0 -1 -1
0 0.6 -1
0 0.2 -1
0 -0.2 -1
0 -0.6 -1
0 -1 -0.6
0 -1 -0.2
0 -1 0.2
0 -1 0.6
0 -0.4052531952 0.6719438381
0 0.001326739737 0.6398182875
0 0.4084466782 0.6730790076
0 0.671668119 0.4109975243
0 0.6409559612 0.002665308352
0 0.6741562537 -0.4067531861
0 0.4126332896 -0.6703225438
0 0.005823851008 -0.6385848783
0 -0.4033337139 -0.671818987
0 -0.6657077798 -0.40925766
0 -0.6331965555 -5.201324309e-05
0 -0.6677757402 0.4090861353
0 -0.7346057871 0.7362059947
0 0.7360229594 0.7368153064
0 0.7373579087 -0.735415146
0 -0.7338082987 -0.7362153294
0 -0.2405618544 0.2463031768
0 0.2488935914 0.2473010883
0 0.2507661259 -0.2443109294
0 -0.2398134703 -0.2452073142
0 0.004821098151 0.001021505389
10 -1 -1
0.4347826087 -1 -1
0.8695652174 -1 -1
1.304347826 -1 -1
1.739130435 -1 -1
2.173913043 -1 -1
2.608695652 -1 -1
3.043478261 -1 -1
3.47826087 -1 -1
3.913043478 -1 -1
4.347826087 -1 -1
4.782608696 -1 -1
5.217391304 -1 -1
5.652173913 -1 -1
6.086956522 -1 -1
6.52173913 -1 -1
6.956521739 -1 -1
7.391304348 -1 -1
7.826086957 -1 -1
8.260869565 -1 -1
8.695652174 -1 -1
9.130434783 -1 -1
9.565217391 -1 -1
10 -1 1
10 -1 0.6
10 -1 0.2
10 -1 -0.2
10 -1 -0.6
9.565217391 -1 1
9.130434783 -1 1
8.695652174 -1 1
8.260869565 -1 1
7.826086957 -1 1
7.391304348 -1 1
6.956521739 -1 1
6.52173913 -1 1
6.086956522 -1 1
5.652173913 -1 1
5.217391304 -1 1
4.782608696 -1 1
4.347826087 -1 1
3.913043478 -1 1
3.47826087 -1 1
3.043478261 -1 1
2.608695652 -1 1
2.173913043 -1 1
1.739130435 -1 1
1.304347826 -1 1
0.8695652174 -1 1
0.4347826087 -1 1
0.729629442 -1 -0.6635577637
1.097265427 -1 -0.6333359435
1.522135506 -1 -0.6308235067
1.951105291 -1 -0.6130855746
2.386536729 -1 -0.5934161458
2.823859431 -1 -0.586753865
3.259542314 -1 -0.5848398819
3.694634853 -1 -0.584345348
4.129557936 -1 -0.584231999
4.564424969 -1 -0.5842176273
4.999266496 -1 -0.5842326218
5.434093124 -1 -0.5842603478
5.86891044 -1 -0.584284892
6.303722477 -1 -0.5842041234
6.740497682 -1 -0.5872447606
7.17853636 -1 -0.604840092
7.612487836 -1 -0.6249179335
8.043508498 -1 -0.6324969398
8.475051627 -1 -0.6333705128
8.905141927 -1 -0.6320726723
9.274499795 -1 -0.6625696607
9.618080371 -1 0.4534228266
9.605025893 -1 0.005759502745
9.602204827 -1 -0.4480684861
9.29127961 -1 0.6570365146
8.891385226 -1 0.5766678087
8.450879826 -1 0.6567623596
8.033893805 -1 0.6725101008
7.609220558 -1 0.6720587385
7.17939841 -1 0.6533893783
6.743151184 -1 0.6327611638
6.305426726 -1 0.6257083233
5.869733142 -1 0.6237509075
5.434706141 -1 0.6232827821
4.999837258 -1 0.6231940531
4.564998272 -1 0.6231910572
4.130157488 -1 0.623202528
3.695301843 -1 0.6232056182
3.260414897 -1 0.6231538348
2.825446968 -1 0.6228035785
2.388159104 -1 0.6259810265
1.950539128 -1 0.6444959038
1.520128153 -1 0.6621228004
1.097390765 -1 0.6595347394
0.7310877198 -1 0.679806638
0.4044857632 -1 -0.4489170224
0.4175823302 -1 0.008909367834
0.4057227558 -1 0.4613044543
0.8547206088 -1 -0.2424675395
1.314631244 -1 -0.2838449871
1.719928235 -1 -0.2739550436
2.151052546 -1 -0.1902895037
2.602062315 -1 -0.1748569237
3.040983539 -1 -0.1704571464
3.476779265 -1 -0.1691507245
3.911893224 -1 -0.1688163875
4.346837699 -1 -0.1687506767
4.781727085 -1 -0.1687577095
5.216594141 -1 -0.1687794543
5.651465535 -1 -0.1687464498
6.086448901 -1 -0.168331152
6.524679442 -1 -0.1685030003
6.978019961 -1 -0.1788951307
7.417362993 -1 -0.2627111926
7.833175134 -1 -0.2830034261
8.253264074 -1 -0.2852212995
8.680212218 -1 -0.2673173674
9.163547715 -1 -0.2313041368
9.234449674 -1 0.2641354036
8.571256509 -1 0.3532649028
8.22655036 -1 0.357366883
7.824339587 -1 0.3578007366
7.415241621 -1 0.3415264745
6.980163881 -1 0.2559152612
6.527279434 -1 0.2391265816
6.087711896 -1 0.2346751191
5.651918084 -1 0.2334073933
5.21687986 -1 0.2331162518
4.781983676 -1 0.2330731546
4.347099995 -1 0.2330773252
3.912189528 -1 0.2330605574
3.477203671 -1 0.2329123829
3.04194917 -1 0.2321634642
2.602932037 -1 0.2324913253
2.150426899 -1 0.244779401
1.717657025 -1 0.3265783522
1.312396003 -1 0.3326543537
0.8555711239 -1 0.276143407
1.171107499 -1 0.0235605818
1.515325982 -1 0.02644511905
1.850878138 -1 0.02671166497
2.376618449 -1 0.02803107472
2.821981765 -1 0.02983517985
3.259228911 -1 0.03136699407
3.694516422 -1 0.0320014571
4.129505111 -1 0.03214270461
4.564412114 -1 0.03216052339
4.99929619 -1 0.03216306062
5.434214405 -1 0.03224943524
5.869386104 -1 0.03275122766
6.306529918 -1 0.03424188712
6.75253568 -1 0.03691092797
7.284272996 -1 0.04123614861
7.635525476 -1 0.04025475777
8.035800866 -1 0.04038813082
8.434077209 -1 0.05361852586
8.829154758 -1 0.1248441894
10 1 -1
9.565217391 1 -1
9.130434783 1 -1
8.695652174 1 -1
8.260869565 1 -1
7.826086957 1 -1
7.391304348 1 -1
6.956521739 1 -1
6.52173913 1 -1
6.086956522 1 -1
5.652173913 1 -1
5.217391304 1 -1
4.782608696 1 -1
4.347826087 1 -1
3.913043478 1 -1
3.47826087 1 -1
3.043478261 1 -1
2.608695652 1 -1
2.173913043 1 -1
1.739130435 1 -1
1.304347826 1 -1
0.8695652174 1 -1
0.4347826087 1 -1
10 -0.6 -1
10 -0.2 -1
10 0.2 -1
10 0.6 -1
9.276850506 0.661381088 -1
8.908485259 0.6286162415 -1
8.47965234 0.6261570305 -1
8.048994442 0.611135059 -1
7.613416601 0.5928548605 -1
7.176126727 0.5866265669 -1
6.740455053 0.5848138383 -1
6.305364771 0.5843403054 -1
5.87044207 0.5842310322 -1
5.435575165 0.5842174245 -1
5.000733867 0.5842328179 -1
4.565907797 0.5842629665 -1
4.131091728 0.5843051848 -1
3.696282075 0.584347957 -1
3.26147611 0.5842925469 -1
2.824715885 0.5873791941 -1
2.386701371 0.6050580731 -1
1.952692618 0.6253074524 -1
1.523556767 0.6331965912 -1
1.098505812 0.6357601094 -1
0.7316278391 0.6658713023 -1
9.61830436 -0.4545736914 -1
9.606494419 -0.007178640383 -1
9.603750984 0.4471115132 -1
0.7304784797 -0.6762057791 -1
1.098582316 -0.6578505635 -1
1.525075232 -0.6691576773 -1
1.953955476 -0.6706288449 -1
2.385206046 -0.6528753995 -1
2.821873271 -0.6325591071 -1
3.259706569 -0.625609134 -1
3.695429689 -0.623689904 -1
4.130465386 -0.6232402561 -1
4.565335636 -0.6231626964 -1
5.000171249 -0.6231673354 -1
5.435003486 -0.6231853934 -1
5.869842904 -0.6232013996 -1
6.304698284 -0.6232055052 -1
6.739585276 -0.6231545192 -1
7.174553524 -0.6228086196 -1
7.611786261 -0.6260849584 -1
8.044244342 -0.643164859 -1
8.458491102 -0.6513107133 -1
8.893464783 -0.5797488044 -1
9.290025903 -0.6600407766 -1
0.4055501769 0.4505116454 -1
0.4185084188 -0.006113389705 -1
0.405788194 -0.4592719478 -1
9.167747397 0.2269409626 -1
8.6896413 0.2586105465 -1
8.27697214 0.2634724813 -1
7.847381506 0.1873121213 -1
7.397677869 0.1742449114 -1
6.958975659 0.1703372904 -1
6.523214482 0.1691276574 -1
6.088105931 0.1688120712 -1
5.653162441 0.1687503059 -1
5.218273851 0.1687604544 -1
4.783409985 0.1687962356 -1
4.348556862 0.1688391633 -1
3.913692559 0.1688310811 -1
3.478709825 0.1684512141 -1
3.040473377 0.1686905338 -1
2.587075884 0.1792444561 -1
2.147425164 0.2634456463 -1
1.733888106 0.2851179166 -1
1.3188287 0.2888165751 -1
0.8566707613 0.2479287524 -1
9.236583012 -0.2675541231 -1
0.8567689813 -0.2736232806 -1
1.320720246 -0.3368936771 -1
1.737126442 -0.351794602 -1
2.148529043 -0.3397386073 -1
2.584622722 -0.2553417335 -1
3.037783606 -0.2388922461 -1
3.477420478 -0.2345484397 -1
3.913230918 -0.2333249498 -1
4.348269377 -0.2330585899 -1
4.783157257 -0.2330329441 -1
5.218023748 -0.2330543897 -1
5.652901536 -0.2330734538 -1
6.087810722 -0.2330606691 -1
6.522795537 -0.2329176543 -1
6.958043619 -0.2321953235 -1
7.396947647 -0.2327645358 -1
7.844898082 -0.2463621049 -1
8.25635661 -0.3320874254 -1
8.583304075 -0.3504847652 -1
8.839247872 -0.1284648796 -1
8.463653131 -0.0548666705 -1
8.137852294 -0.03650631964 -1
7.621726276 -0.02939240202 -1
7.177911198 -0.03009441439 -1
6.740757324 -0.03141200751 -1
6.305481668 -0.0320096487 -1
5.870495157 -0.03214293643 -1
5.435590394 -0.03215427079 -1
5.00071621 -0.03213266097 -1
4.56584837 -0.03211403379 -1
4.130937429 -0.03217832383 -1
3.695763445 -0.0326477736 -1
3.258596821 -0.03407473449 -1
2.812488897 -0.03657474742 -1
2.280139474 -0.04020912381 -1
1.930008426 -0.03697934944 -1
1.535547774 -0.02962759909 -1
1.177707293 -0.02067984585 -1
10 1 1
10 0.6 1
10 0.2 1
10 -0.2 1
10 -0.6 1
10 1 -0.6
10 1 -0.2
10 1 0.2
10 1 0.6
10 0.4052531952 0.6719438381
10 -0.001326739737 0.6398182875
10 -0.4084466782 0.6730790076
10 -0.671668119 0.4109975243
10 -0.6409559612 0.002665308352
10 -0.6741562537 -0.4067531861
10 -0.4126332896 -0.6703225438
10 -0.005823851008 -0.6385848783
10 0.4033337139 -0.671818987
10 0.6657077798 -0.40925766
10 0.6331965555 -5.201324309e-05
10 0.6677757402 0.4090861353
10 0.7346057871 0.7362059947
10 -0.7360229594 0.7368153064
10 -0.7373579087 -0.735415146
10 0.7338082987 -0.7362153294
10 0.2405618544 0.2463031768
10 -0.2488935914 0.2473010883
10 -0.2507661259 -0.2443109294
10 0.2398134703 -0.2452073142
10 -0.004821098151 0.001021505389
0.4347826087 1 1
0.8695652174 1 1
1.304347826 1 1
1.739130435 1 1
2.173913043 1 1
2.608695652 1 1
3.043478261 1 1
3.47826087 1 1
3.913043478 1 1
4.347826087 1 1
4.782608696 1 1
5.217391304 1 1
5.652173913 1 1
6.086956522 1 1
6.52173913 1 1
6.956521739 1 1
7.391304348 1 1
7.826086957 1 1
8.260869565 1 1
8.695652174 1 1
9.130434783 1 1
9.565217391 1 1
9.276850506 -0.661381088 1
8.908485259 -0.6286162415 1
8.47965234 -0.6261570305 1
8.048994442 -0.611135059 1
7.613416601 -0.5928548605 1
7.176126727 -0.5866265669 1
6.740455053 -0.5848138383 1
6.305364771 -0.5843403054 1
5.87044207 -0.5842310322 1
5.435575165 -0.5842174245 1
5.000733867 -0.5842328179 1
4.565907797 -0.5842629665 1
4.131091728 -0.5843051848 1
3.696282075 -0.584347957 1
3.26147611 -0.5842925469 1
2.824715885 -0.5873791941 1
2.386701371 -0.6050580731 1
1.952692618 -0.6253074524 1
1.523556767 -0.6331965912 1
1.098505812 -0.6357601094 1
0.7316278391 -0.6658713023 1
9.61830436 0.4545736914 1
9.606494419 0.007178640383 1
9.603750984 -0.4471115132 1
[...]
CELL_DATA 9713
SCALARS TALLY_TAG double 1
LOOKUP_TABLE default
0 
0 
0 
0 
0 
0 
0 
0 
0 
0 
0 
0 
0 
0 
0 
0 
0 
0 
0 
0 
0 
0 
0 
0 
0 
0 
0 
0 
0 
0 
0 
0 
0 
0 
0 
0 
0 
0 
0 
0 
0 
0 
0 
0 
0 
0 
0 
0 
0 
0 
0 
0 
0 
0 
0 
0 
0 
0 
0 
0 
0 
0 
0 
0 
0 
0 
0 
0 
0 
0 
0 
0 
0 
0 
0 
0 
0 
0 
0 
0 
0 
0 
0 
0 
0 
0 
0 
0 
0 
0 
0 
0 
0 
0 
0 
0 
0 
0 
0 
0 
0 
0 
0 
0 
0 
0 
0 
0 
0 
0 
0 
0 
0 
0 
0 
0 
0 
0 
0 
0 
0 
0 
0 
0 
0 
0 
0 
0 
0 
0 
0 
0 
0 
0 
0 
0 
0 
0 
0 
0 
0 
0 
0 
0 
0 
0 
0 
0 
0 
0 
0 
0 
0 
0 
0 
0 
0 
0 
0 
0 
0 
0 
0 
0 
0 
0 
0 
0 
0 
0 
0 
0 
0 
0 
0 
0 
0 
0 
0 
0 
0 
0 
0 
0 
0 
0 
0 
0 
0 
0 
0 
0 
0 
0 
0 
0 
0 
0 
0 
0 
0 
0 
0 
0 
0 
0 
0 
0 
0 
0 
0 
0 
0 
0 
0 
0 
0 
0 
0 
0 
0 
0 
0 
0 
0 
0 
0 
0 
0 
0 
0 
0 
0 
0 
0 
0 
0 
0 
0 
0 
0 
0 
0 
0 
0 
0 
0 
0 
0 
0 
0 
0 
0 
0 
0 
0 
0 
0 
0 
0 
0 
0 
0 
0 
0 
0 
0 
0 
0 
0 
0 
0 
0 
0 
0 
0 
0 
0 
0 
0 
0 
0 
0 
0 
0 
0 
0 
0 
0 
0 
0 
0 
0 
0 
0 
0 
0 
0 
0 
0 
0 
0 
0 
0 
0 
0 
0 
0 
0 
0 
0 
0 
0 
0 
0 
0 
0 
0 
0 
0 
0 
0 
0 
0 
0 
0 
0 
0 
0 
0 
0 
0 
0 
0 
0 
0 
0 
0 
0 
0 
0 
0 
0 
0 
0 
0 
0 
0 
0 
0 
0 
0 
0 
0 
0 
0 
0 
0 
0 
0 
0 
0 
0 
0 
0 
0 
0 
0 
0 
0 
0 
0 
0 
0 
0 
0 
0 
0 
0 
0 
0 
0 
0 
0 
0 
0 
0 
0 
0 
0 
0 
0 
0 
0 
0 
0 
0 
0 
0 
0 
0 
0 
0 
0 
0 
0 
0 
0 
0 
0 
0 
0 
0 
0 
0 
0 
0 
0 
0 
0 
0 
0 
0 
0 
0 
0 
0 
0 
0 
0 
0 
0 
0 
0 
0 
0 
0 
0 
0 
0 
0 
0 
0 
0 
0 
0 
0 
0 
0 
0 
0 
0 
0 
0 
0 
0 
0 
0 
0 
0 
0 
0 
0 
0 
0 
0 
0 
0 
0 
0 
0 
0 
0 
0 
0 
0 
0 
0 
0 
0 
0 
0 
0 
0 
0 
0 
0 
0 
0 
0 
0 
0 
0 
0 
0 
0 
0 
0 
0 
0 
0 
0 
0 
0 
0 
0 
0 
0 
0 
0 
0 
0 
0 
0 
0 
0 
0 
0 
0 
0 
0 
0 
0 
0 
0 
0 
0 
0 
0 
0 
0 
0 
0 
0 
0 
0 
0 
0 
0 
0 
0 
0 
0 
0 
0 
0 
0 
0 
0 
0 
0 
0 
0 
0 
0 
0 
0 
0 
0 
0 
0 
0 
0 
0 
0 
0 
0 
0 
0 
0 
0 
0 
0 
0 
0 
0 
0 
0 
0 
0 
0 
0 
0 
0 
0 
0 
0 
0 
0 
0 
0 
0 
0 
0 
0 
0 
0 
0 
0 
0 
0 
0 
0 
0 
0 
0 
0 
0 
0 
0 
0 
0 
0 
0 
0 
0 
0 
0 
0 
0 
0 
0 
0 
0 
0 
0 
0 
0 
0 
0 
0 
0 
0 
0 
0 
0 
0 
0 
0 
0 
0 
0 
0 
0 
0 
0 
0 
0 
0 
0 
0 
0 
0 
0 
0 
0 
0 
0 
0 
0 
0 
0 
0 
0 
0 
0 
0 
0 
0 
0 
0 
0 
0 
0 
0 
0 
0 
0 
0 
0 
0 
0 
0 
0 
0 
0 
0 
0 
0 
0 
0 
0 
0 
0 
0 
0 
0 
0 
0 
0 
0 
0 
0 
0 
0 
0 
0 
0 
0 
0 
0 
0 
0 
0 
0 
0 
0 
0 
0 
0 
0 
0 
0 
0 
0 
0 
0 
0 
0 
0 
0 
0 
0 
0 
0 
0 
0 
0 
0 
0 
0 
0 
0 
0 
0 
0 
0 
0 
0 
0 
0 
0 
0 
0 
0 
0 
0 
0 
0 
0 
0 
0 
0 
0 
0 
0 
0 
0 
0 
0 
0 
0 
0 
0 
0 
0 
0 
0 
0 
0 
0 
0 
0 
0 
0 
0 
0 
0 
0 
0 
0 
0 
0 
0 
0 
0 
0 
0 
0 
0 
0 
0 
0 
0 
0 
0 
0 
0 
0 
0 
0 
0 
0 
0 
0 
0 
0 
0 
0 
0 
0 
0 
0 
0 
0 
0 
0 
0 
0 
0 
0 
0 
0 
0 
0 
0 
0 
0 
0 
0 
0 
0 
0 
0 
0 
0 
0 
0 
0 
0 
0 
0 
0 
0 
0 
0 
0 
0 
0 
0 
0 
0 
0 
0 
0 
0 
0 
0 
0 
0 
0 
0 
0 
0 
0 
0 
0 
0 
0 
0 
0 
0 
0 
0 
0 
0 
0 
0 
0 
0 
0 
0 
0 
0 
0 
0 
0 
0 
0 
0 
0 
0 
0 
0 
0 
0 
0 
0 
0 
0 
0 
0 
0 
0 
0 
0 
0 
0 
0 
0 
0 
0 
0 
0 
0 
0 
0 
0 
0 
0 
0 
0 
0 
0 
0 
0 
0 
0 
0 
0 
0 
0 
0 
0 
0 
0 
0 
0 
0 
0 
0 
0 
0 
0 
0 
0 
0 
0 
0 
0 
0 
0 
0 
0 
0 
0 
0 
0 
0 
0 
0 
0 
0 
0 
0 
0 
0 
0 
0 
0 
0 
0 
0 
0 
0 
0 
0 
0 
0 
0 
0 
0 
0 
0 
0 
0 
0 
0 
0 
0 
0 
0 
0 
0 
0 
0 
0 
0 
0 
0 
0 
0 
0 
0 
0 
0 
0 
0 
0 
0 
0 
0 
0 
0 
0 
0 
0 
0 
0 
0 
0 
0 
0 
0 
0 
0 
0 
0 
0 
0 
0 
0 
0 
0 
0 
0 
0 
0 
0 
0 
0 
0 
0 
0 
0 
0 
0 
0 
0 
0 
0 
0 
0 
0 
0 
0 
0 
0 
0 
0 
0 
0 
0 
0 
0 
0 
0 
0 
0 
0 
0 
0 
0 
0 
0 
0 
0 
0 
0 
0 
0 
0 
0 
0 
0 
0 
0 
0 
0 
0 
0 
0 
0 
0 
0 
0 
0 
0 
0 
0 
0 
0 
0 
0 
0 
0 
0 
0 
0 
0 
0 
0 
0 
0 
0 
0 
0 
0 
0 
0 
0 
0 
0 
0 
0 
0 
0 
0 
0 
0 
0 
0 
0 
0 
0 
0 
0 
0 
0 
0 
0 
0 
0 
0 
0 
0 
0 
0 
0 
0 
0 
0 
0 
0 
0 
0 
0 
0 
0 
0 
0 
0 
0 
0 
0 
0 
0 
0 
0 
0 
0 
0 
0 
0 
0 
0 
0 
0 
0 
0 
0 
0 
0 
0 
0 
0 
0 
0 
0 
0 
0 
0 
0 
0 
0 
0 
0 
0 
0 
0 
0 
0 
0 
0 
0 
0 
0 
0 
0 
0 
0 
0 
0 
0 
0 
0 
0 
0 
0 
0 
0 
0 
0 
0 
0 
0 
0 
0 
0 
0 
0 
0 
0 
0 
0 
0 
0 
0 
0 
0 
0 
0 
0 
0 
0 
0 
0 
0 
0 
0 
0 
0 
0 
0 
0 
0 
0 
0 
0 
0 
0 
0 
0 
0 
0 
0 
0 
0 
0 
0 
0 
0 
0 
0 
0 
0 
0 
0 
0 
0 
0 
0 
0 
0 
0 
0 
0 
0 
0 
0 
0 
0 
0 
0 
0 
0 
0 
0 
0 
0 
0 
0 
0 
0 
0 
0 
0 
0 
0 
0 
0 
0 
0 
0 
0 
0 
0 
0 
0 
0 
0 
0 
0 
0 
0 
0 
0 
0 
0 
0 
0 
0 
0 
0 
0 
0 
0 
0 
0 
0 
0 
0 
0 
0 
0 
0 
0 
0 
0 
0 
0 
0 
0 
0 
0 
0 
0 
0 
0 
0 
0 
0 
0 
0 
0 
0 
0 
0 
0 
0 
0 
0 
0 
0 
0 
0 
0 
0 
0 
0 
0 
0 
0 
0 
0 
0 
0 
0 
0 
0 
0 
0 
0 
0 
0 
0 
0 
0 
0 
0 
0 
0 
0 
0 
0 
0 
0 
0 
0 
0 
0 
0 
0 
0 
0 
0 
0 
0 
0 
0 
0 
0 
0 
0 
0 
0 
0 
0 
0 
0 
0 
0 
0 
0 
0 
0 
0 
0 
0 
0 
0 
0 
0 
0 
0 
0 
0 
0 
0 
0 
0 
0 
0 
0 
0 
0 
0 
0 
0 
0 
0 
0 
0 
0 
0 
0 
0 
0 
0 
0 
0 
0 
0 
0 
0 
0 
0 
0 
0 
0 
0 
0 
0 
0 
0 
0 
0 
0 
0 
0 
0 
0 
0 
0 
0 
0 
0 
0 
0 
0 
0 
0 
0 
0 
0 
0 
0 
0 
0 
0 
0 
0 
0 
0 
0 
0 
0 
0 
0 
0 
0 
0 
0 
0 
0 
0 
0 
0 
0 
0 
0 
0 
0 
0 
0 
0 
0 
0 
0 
0 
0 
0 
0 
0 
0 
0 
0 
0 
0 
0 
0 
0 
0 
0 
0 
0 
0 
0 
0 
0 
0 
0 
0 
0 
0 
0 
0 
0 
0 
0 
0 
0 
0 
0 
0 
0 
0 
0 
0 
0 
0 
0 
0 
0 
0 
0 
0 
0 
0 
0 
0 
0 
0 
0 
0 
0 
0 
0 
0 
0 
0 
0 
0 
0 
0 
0 
0 
0 
0 
0 
0 
0 
0 
0 
0 
0 
0 
0 
0 
0 
0 
0 
0 
0 
0 
0 
0 
0 
0 
0 
0 
0 
0 
0 
0 
0 
0 
0 
0 
0 
0 
0 
0 
0 
0 
0 
0 
0 
0 
0 
0 
0 
0 
0 
0 
0 
0 
0 
0 
0 
0 
0 
0 
0 
0 
0 
0 
0 
0 
0 
0 
0 
0 
0 
0 
0 
0 
0 
0 
0 
0 
0 
0 
0 
0 
0 
0 
0 
0 
0 
0 
0 
0 
0 
0 
0 
0 
0 
0 
0 
0 
0 
0 
0 
0 
0 
0 
0 
0 
0 
0 
0 
0 
0 
0 
0 
0 
0 
0 
0 
0 
0 
0 
0 
0 
0 
0 
0 
0 
0 
0 
0 
0 
0 
0 
0 
0 
0 
0 
0 
0 
0 
0 
0 
0 
0 
0 
0 
0 
0 
0 
0 
0 
0 
0 
0 
0 
0 
0 
0 
0 
0 
0 
0 
0 
0 
0 
0 
0 
0 
0 
0 
0 
0 
0 
0 
0 
0 
0 
0 
0 
0 
0 
0 
0 
0 
0 
0 
0 
0 
0 
0 
0 
0 
0 
0 
0 
0 
0 
0 
0 
0 
0 
0 
0 
0 
0 
0 
0 
0 
0 
0 
0 
0 
0 
0 
0 
0 
0 
0 
0 
0 
0 
0 
0 
0 
0 
0 
0 
0 
0 
0 
0 
0 
0 
0 
0 
0 
0 
0 
0 
0 
0 
0 
0 
0 
0 
0 
0 
0 
0 
0 
0 
0 
0 
0 
0 
0 
0 
0 
0 
0 
0 
0 
0 
0 
0 
0 
0 
0 
0 
0 
0 
0 
0 
0 
0 
0 
0 
0 
0 
0 
0 
0 
0 
0 
0 
0 
0 
0 
0 
0 
0 
0 
0 
0 
0 
0 
0 
0 
0 
0 
0 
0 
0 
0 
0 
0 
0 
0 
0 
0 
0 
0 
0 
0 
0 
0 
0 
0 
0 
0 
0 
0 
0 
0 
0 
0 
0 
0 
0 
0 
0 
0 
0 
0 
0 
0 
0 
0 
0 
0 
0 
0 
0 
0 
0 
0 
0 
0 
0 
0 
0 
0 
0 
0 
0 
0 
0 
0 
0 
0 
0 
0 
0 
0 
0 
0 
0 
0 
0 
0 
0 
0 
0 
0 
0 
0 
0 
0 
0 
0 
0 
0 
0 
0 
0 
0 
0 
0 
0 
0 
0 
0 
0 
0 
0 
0 
0 
0 
0 
0 
0 
0 
0 
0 
0 
0 
0 
0 
0 
0 
0 
0 
0 
0 
0 
0 
0 
0 
0 
0 
0 
0 
0 
0 
0 
0 
0 
0 
0 
0 
0 
0 
0 
0 
0 
0 
0 
0 
0 
0 
0 
0 
0 
0 
0 
0 
0 
0 
0 
0 
0 
0 
0 
0 
0 
0 
0 
0 
0 
0 
0 
0 
0 
0 
0 
0 
0 
0 
0 
0 
0 
0 
0 
0 
0 
0 
0 
0 
0 
0 
0 
0 
0 
0 
0 
0 
0 
0 
0 
0 
0 
0 
0 
0 
0 
0 
0 
0 
0 
0 
0 
0 
0 
0 
0 
0 
0 
0 
0 
0 
0 
0 
0 
0 
0 
0 
0 
0 
0 
0 
0 
0 
0 
0 
0 
0 
0 
0 
0 
0 
0 
0 
0 
0 
0 
0 
0 
0 
0 
0 
0 
0 
0 
0 
0 
0 
0 
0 
0 
0 
0 
0 
0 
0 
0 
0 
0 
0 
0 
0 
0 
0 
0 
0 
0 
0 
0 
0 
0 
0 
0 
0 
0 
0 
0 
0 
0 
0 
0 
0 
0 
0 
0 
0 
0 
0 
0 
0 
0 
0 
0 
0 
0 
0 
0 
0 
0 
0 
0 
0 
0 
0 
0 
0 
0 
0 
0 
0 
0 
0 
0 
0 
0 
0 
0 
0 
0 
0 
0 
0 
0 
0 
0 
0 
0 
0 
0 
0 
0 
0 
0 
0 
0 
0 
0 
0 
0 
0 
0 
0 
0 
0 
0 
0 
0 
0 
0 
0 
0 
0 
0 
0 
0 
0 
0 
0 
0 
0 
0 
0 
0 
0 
0 
0 
0 
0 
0 
0 
0 
0 
0 
0 
0 
0 
0 
0 
0 
0 
0 
0 
0 
0 
0 
0 
0 
0 
0 
0 
0 
0 
0 
0 
0 
0 
0 
0 
0 
0 
0 
0 
0 
0 
0 
0 
0 
0 
0 
0 
0 
0 
0 
0 
0 
0 
0 
0 
0 
0 
0 
0 
0 
0 
0 
0 
0 
0 
0 
0 
0 
0 
0 
0 
0 
0 
0 
0 
0 
0 
0 
0 
0 
0 
0 
0 
0 
0 
0 
0 
0 
0 
0 
0 
0 
0 
0 
0 
0 
0 
0 
0 
0 
0 
0 
0 
0 
0 
0 
0 
0 
0 
0 
0 
0 
0 
0 
0 
0 
0 
0 
0 
0 
0 
0 
0 
0 
0 
0 
0 
0 
0 
0 
0 
0 
0 
0 
0 
0 
0 
0 
0 
0 
0 
0 
0 
0 
0 
0 
0 
0 
0 
0 
0 
0 
0 
0 
0 
0 
0 
0 
0 
0 
0 
0 
0 
0 
0 
0 
0 
0 
0 
0 
0 
0 
0 
0 
0 
0 
0 
0 
0 
0 
0 
0 
0 
0 
0 
0 
0 
0 
0 
0 
0 
0 
0 
0 
0 
0 
0 
0 
0 
0 
0 
0 
0 
0 
0 
0 
0 
0 
0 
0 
0 
0 
0 
0 
0 
0 
0 
0 
0 
0 
0 
0 
0 
0 
0 
0 
0 
0 
0 
0 
0 
0 
0 
0 
0 
0 
0 
0 
0 
0 
0 
0 
0 
0 
0 
0 
0 
0 
0 
0 
0 
0 
0 
0 
0 
0 
0 
0 
0 
0 
0 
0 
0 
0 
0 
0 
0 
0 
0 
0 
0 
0 
0 
0 
0 
0 
0 
0 
0 
0 
0 
0 
0 
0 
0 
0 
0 
0 
0 
0 
0 
0 
0 
0 
0 
0 
0 
0 
0 
0 
0 
0 
0 
0 
0 
0 
0 
0 
0 
0 
0 
0 
0 
0 
0 
0 
0 
0 
0 
0 
0 
0 
0 
0 
0 
0 
0 
0 
0 
0 
0 
0 
0 
0 
0 
0 
0 
0 
0 
0 
0 
0 
0 
0 
0 
0 
0 
0 
0 
0 
0 
0 
0 
0 
0 
0 
0 
0 
0 
0 
0 
0 
0 
0 
0 
0 
0 
0 
0 
0 
0 
0 
0 
0 
0 
0 
0 
0 
0 
0 
0 
0 
0 
0 
0 
0 
0 
0 
0 
0 
0 
0 
0 
0 
0 
0 
0 
0 
0 
0 
0 
0 
0 
0 
0 
0 
0 
0 
0 
0 
0 
0 
0 
0 
0 
0 
0 
0 
0 
0 
0 
0 
0 
0 
0 
0 
0 
0 
0 
0 
0 
0 
0 
0 
0 
0 
0 
0 
0 
0 
0 
0 
0 
0 
0 
0 
0 
0 
0 
0 
0 
0 
0 
0 
0 
0 
0 
0 
0 
0 
0 
0 
0 
0 
0 
0 
0 
0 
0 
0 
0 
0 
0 
0 
0 
0 
0 
0 
0 
0 
0 
0 
0 
0 
0 
0 
0 
0 
0 
0 
0 
0 
0 
0 
0 
0 
0 
0 
0 
0 
0 
0 
0 
0 
0 
0 
0 
0 
0 
0 
0 
0 
0 
0 
0 
0 
0 
0 
0 
0 
0 
0 
0 
0 
0 
0 
0 
0 
0 
0 
0 
0 
0 
0 
0 
0 
0 
0 
0 
0 
0 
0 
0 
0 
0 
0 
0 
0 
0 
0 
0 
0 
0 
0 
0 
0 
0 
0 
0 
0 
0 
0 
0 
0 
0 
0 
0 
0 
0 
0 
0 
0 
0 
0 
0 
0 
0 
0 
0 
0 
0 
0 
0 
0 
0 
0 
0 
0 
0 
0 
0 
0 
0 
0 
0 
0 
0 
0 
0 
0 
0 
0 
0 
0 
0 
0 
0 
0 
0 
0 
0 
0 
0 
0 
0 
0 
0 
0 
0 
0 
0 
0 
0 
0 
0 
0 
0 
0 
0 
0 
0 
0 
0 
0 
0 
0 
0 
0 
0 
0 
0 
0 
0 
0 
0 
0 
0 
0 
0 
0 
0 
0 
0 
0 
0 
0 
0 
0 
0 
0 
0 
0 
0 
0 
0 
0 
0 
0 
0 
0 
0 
0 
0 
0 
0 
0 
0 
0 
0 
0 
0 
0 
0 
0 
0 
0 
0 
0 
0 
0 
0 
0 
0 
0 
0 
0 
0 
0 
0 
0 
0 
0 
0 
0 
0 
0 
0 
0.150685512 
0.1445989381 
0.2513966956 
0.114441167 
0.2091216884 
0.2486997171 
0.2512645857 
0.2490866283 
0.1661043907 
0.1667877359 
0.1597178639 
0.1597844327 
0.1562263075 
0.24564414 
0.2382946385 
0.2381512863 
0.2406098386 
0.239330731 
0.1340033506 
0.1349313681 
0.09103641548 
0.1407285469 
0.1374344189 
0.253300134 
0.2540737976 
0.2493743857 
0.1129311595 
0.1067355535 
0.1126675609 
0.111543421 
0.1064764291 
0.1065248252 
0.1129023266 
0.1144934599 
0.245746552 
0.2405752378 
0.07819155219 
0.2481439715 
0.249264458 
0.2449893366 
0.2447484379 
0.2465308364 
0.2447114394 
0.13087579 
0.1270288384 
0.1370561249 
0.1304970015 
0.1388620311 
0.136838672 
0.2476718541 
0.2463302012 
0.2486526486 
0.2457222936 
0.2475769284 
0.2514210714 
0.2500672634 
0.07385327058 
0.2530765688 
0.09564921086 
0.2514481743 
0.2486931477 
0.2472434481 
0.2534759015 
0.2486582713 
0.2510701838 
0.2390665897 
0.2402631449 
0.2160887364 
0.2337622231 
0.2349132626 
0.241080059 
0.237603491 
0.2358990235 
0.251021643 
0.2490795401 
0.2446898256 
0.2162416919 
0.2498594107 
0.2520310981 
0.253474301 
0.2522381691 
0.2516385968 
0.253580932 
0.2513561086 
0.2474956933 
0.2490541305 
0.2131242016 
0.2515878843 
0.2474065389 
0.2486317622 
0.2489021501 
0.1414435059 
0.1391323398 
0.151708822 
0.1284504835 
0.1409627551 
0.1474096698 
0.1495993629 
0.153153662 
0.09101679459 
0.1398887918 
0.1410483301 
0.1401875169 
0.1478769222 
0.146190192 
0.1390548314 
0.138685076 
0.1381406294 
0.1624725856 
0.1522917196 
0.1586060509 
0.1349075041 
0.1340979293 
0.1480589043 
0.1397229935 
0.1384023273 
0.1367142081 
0.2382514723 
0.2433339834 
0.2437025687 
0.2380661372 
0.2377932494 
0.2393977714 
0.2401766043 
0.1574980464 
0.1601317532 
0.1604176565 
0.1694216163 
0.1620521319 
0.1667365991 
0.2047541417 
0.2390271507 
0.1956624823 
0.197673411 
0.1957769082 
0.1971566923 
0.1004899726 
0.2025412634 
0.07855247263 
0.2124272755 
0.2066031385 
0.1735654353 
0.1717325345 
0.1749128976 
0.1750964529 
0.2250063138 
0.2298472152 
0.226455781 
0.220884111 
0.1081278176 
0.1136647883 
0.1196533337 
0.1162528012 
0.1153865768 
0.2504761357 
0.253216819 
0.2507952108 
0.2504144325 
0.2456760959 
0.09626629006 
0.1306207739 
0.2499547156 
0.2495888029 
0.2497195038 
0.2494588972 
0.1150446451 
0.1126941554 
0.1091448168 
0.1293572732 
0.1049017193 
0.107828263 
0.108962687 
0.1136216421 
0.1181340372 
0.1138638443 
0.1164047366 
0.1367469635 
0.1322997336 
0.1290396373 
0.1387509834 
0.1361752057 
0.1076594223 
0.2412396933 
0.2424554129 
0.2465729197 
0.2366593584 
0.1348956049 
0.2447651353 
0.2465501146 
0.2422973324 
0.1341712177 
0.2409764809 
0.2433944226 
0.1245898692 
0.2142445548 
0.2176089429 
0.1293320998 
0.2230388036 
0.2257522918 
0.2290816585 
0.2454167706 
0.2449088997 
0.2389191939 
0.2480316175 
0.2376057614 
0.1127969799 
0.2395825071 
0.2383814041 
0.2338212543 
0.2518744064 
0.2517527193 
0.1188472897 
0.2529687091 
0.2528032485 
0.2534257973 
0.2308523808 
0.234090145 
0.2371473365 
0.2365498147 
0.1641884029 
0.1740006807 
0.1756877436 
0.1779355695 
0.1782540109 
0.1792490557 
0.1700679479 
0.2489843828 
0.2472014806 
0.2451018534 
0.2453758109 
0.1645567767 
0.1613967721 
0.1523715946 
0.1584312894 
0.1828900461 
0.1790600568 
0.128321356 
0.180965061 
0.178007955 
0.1818722875 
0.1352733743 
0.09210087285 
0.08767424301 
0.08714122225 
0.08837189585 
0.08831266281 
0.1986571629 
0.2017390135 
0.2047707588 
0.2042232971 
0.2070768026 
0.199103821 
0.2002776796 
0.1993319137 
0.1365904073 
0.197310794 
0.198412759 
0.1939254344 
0.1927107409 
0.1964212995 
0.137135274 
0.238820917 
0.2330901604 
0.2336772894 
0.2384211587 
0.2313701843 
0.2393206485 
0.2299394898 
0.1317170568 
0.2330013298 
0.2345447453 
0.2349712997 
0.2312430499 
0.1671457743 
0.1834339479 
0.1709516674 
0.1663714219 
0.1743234426 
0.2147867977 
0.1683041474 
0.2231994352 
0.2242757694 
0.2166302349 
0.2183550855 
0.2213219483 
0.2220169396 
0.2233295307 
0.2168919575 
0.2223791437 
0.21896795 
0.2142224279 
0.2197710079 
0.2139599463 
0.2501352968 
0.2497495904 
0.2531128093 
0.2526876037 
0.2444414793 
0.2406714744 
0.2488199118 
0.247753165 
0.239973992 
0.2378922691 
0.2361466442 
0.2397528472 
0.2432036418 
0.2464800807 
0.2431540499 
0.2458603667 
0.244295566 
0.2436105636 
0.2454791223 
0.2407804032 
0.09736785698 
0.09869623068 
0.1046454683 
0.111148901 
0.1089523833 
0.1096142833 
0.1065553644 
0.2294779661 
0.1886449284 
0.2316777575 
0.2333164155 
0.2254028909 
0.2285113394 
0.2246007271 
0.2185868809 
0.2262166534 
0.1760733341 
0.1752980445 
0.1699452346 
0.1722245735 
0.1224864518 
0.1259990869 
0.1282169133 
0.1340575798 
0.1338568469 
0.2200073865 
0.2201773763 
0.2244205608 
0.2260250568 
0.2245695462 
0.2230063397 
0.139613195 
0.1328279174 
0.1343127897 
0.135106417 
0.1398258471 
0.1374327086 
0.1354342356 
0.123395911 
0.1277853761 
0.1314002181 
0.1323293978 
0.1296864562 
0.1245506442 
0.1856148015 
0.1810310122 
0.1803285696 
0.1775786741 
0.1786040027 
0.2496853414 
0.2462568769 
0.2504044667 
0.2188319048 
0.2450655416 
0.1439215587 
0.1583847015 
0.1559084915 
0.1416306039 
0.1523439608 
0.1434846756 
0.1383179868 
0.1637421165 
0.1420763034 
0.1444020044 
0.139755065 
0.1432820741 
0.1375000957 
0.1329293663 
0.1463165897 
0.1362435919 
0.1431367972 
0.1420162187 
0.1619806529 
0.1619522163 
0.1627198846 
0.156920679 
0.1641001586 
0.1654923954 
0.1601687909 
0.2501403945 
0.2492854166 
0.2486116582 
0.2525418195 
0.2511208551 
0.2526480653 
0.2135500343 
0.2423945967 
0.2478924007 
0.2416996795 
0.2466675346 
0.2485299868 
0.2451732554 
0.2496281497 
0.2508353417 
0.09587626 
0.2189346023 
0.08503406767 
0.08583695355 
0.08767213197 
0.1421960176 
0.1354195003 
0.1485254443 
0.1487425989 
0.1483367188 
0.1485854388 
0.07057038492 
0.144749307 
0.1466778757 
0.1482809269 
0.1525744528 
0.2099854834 
0.1398963787 
0.2497486481 
0.2137781378 
0.2510860165 
0.2531868325 
0.2507993455 
0.2501286848 
0.07913692018 
0.09228185237 
0.08120545056 
0.08930227935 
0.08310636504 
0.08057180405 
0.08851912709 
0.253166663 
0.2484274742 
0.2488643845 
0.2460832441 
0.1012039248 
0.09994184746 
0.1128648872 
0.1102034555 
0.111933024 
0.09951291823 
0.109241857 
0.1015552703 
0.0967914989 
0.2322797635 
0.2349142727 
0.2316915123 
0.233451211 
0.2265856693 
0.2300943642 
0.22957893 
0.2298918807 
0.246844136 
0.2452117459 
0.246144488 
0.2136198067 
0.2282556634 
0.2295624068 
0.2351539406 
0.2366142359 
0.2364012496 
0.2145778181 
0.2273160002 
0.2346831831 
0.2240290812 
0.2219759359 
0.2347754801 
0.2243813063 
0.2240055476 
0.2260799042 
0.2438139277 
0.2453477183 
0.2521349034 
0.2478483064 
0.232390241 
0.2452008594 
0.2502616235 
0.2498200312 
0.2419600038 
0.24769798 
0.2447789374 
0.2386347904 
0.2212167575 
0.2433330771 
0.238740758 
0.244837565 
0.2425360874 
0.1683314056 
0.1625958526 
0.1706980181 
0.1619842384 
0.1489266314 
0.1660955546 
0.2235761687 
0.1585189718 
0.1600841543 
0.1585981424 
0.1723427021 
0.168010862 
0.1692727992 
0.1594820945 
0.2345297788 
0.1645721982 
0.1119282209 
0.1066775318 
0.1163513882 
0.1120317333 
0.1116266595 
0.1101626034 
0.1059896303 
0.2449889965 
0.2488397783 
0.2462433441 
0.2448224255 
0.2451292499 
0.234452434 
0.2381510052 
0.2369588669 
0.2457396633 
0.1589381648 
0.1543307015 
0.2274277953 
0.1638956918 
0.1390538635 
0.1504869524 
0.149574584 
0.1421153686 
0.1390846109 
0.1568618263 
0.2010860242 
0.2029725382 
0.1915259989 
0.1997886498 
0.1975644132 
0.2480386086 
0.2268426135 
0.2350797542 
0.2388935952 
0.2407886326 
0.2359173125 
0.1263960464 
0.1250053614 
0.1300351576 
0.1299864907 
0.1200096401 
0.1229453707 
0.1300162357 
0.08614813345 
0.08334233002 
0.08990564876 
0.0956859429 
0.09243272047 
0.08263014126 
0.09203075238 
0.08382907145 
0.2380257716 
0.2373304528 
0.237555936 
0.2508885938 
0.2414741125 
0.237986501 
0.1764605533 
0.1770290799 
0.1719461783 
0.1821482814 
0.2347457889 
0.233295581 
0.2354604932 
0.2286984586 
0.2377560567 
0.1642129859 
0.1628311343 
0.1848786868 
0.1849468758 
0.1849002771 
0.1812564736 
0.1737696038 
0.209036929 
0.1240389527 
0.2022530902 
0.2000067766 
0.2071703956 
0.2197514269 
0.2093697893 
0.1979805281 
0.2301497993 
0.1809273643 
0.1789440629 
0.1747919721 
0.1798662926 
0.1682941703 
0.1659223573 
0.1056614544 
0.09237512895 
0.1042253434 
0.09679690798 
0.09990466847 
0.2133117964 
0.2174271441 
0.2115685735 
0.2186314208 
0.2117084115 
0.2494955581 
0.2483182186 
0.2502896389 
0.2521302961 
0.2488349782 
0.2488395488 
0.2562344115 
0.2506339858 
0.2530863577 
0.2209555559 
0.2453662686 
0.227940937 
0.2508064397 
0.2499200985 
0.244658494 
0.2531260316 
0.2471864349 
0.2459498545 
0.2436360934 
0.2530719327 
0.2507996874 
0.144365242 
0.1378426815 
0.1371730264 
0.1460757613 
0.1453357057 
0.1456125189 
0.1426439496 
0.1211258788 
0.1215202599 
0.1108897212 
0.1094923233 
0.1207535118 
0.2249174764 
0.2200939162 
0.2248537811 
0.2185190553 
0.1301413193 
0.1247420319 
0.1319335717 
0.1272719067 
0.1247202855 
0.144159492 
0.1380420644 
0.09571254375 
0.09169386582 
0.07960168893 
0.0864875417 
0.08497997933 
0.08762424446 
0.09066436577 
0.2097841734 
0.2326274827 
0.2330091922 
0.2473422852 
0.234988927 
0.2385575062 
0.2361331227 
0.2310559573 
0.2487337697 
0.2419135462 
0.08706436655 
0.2210685502 
0.0812742289 
0.07863050294 
0.08377868663 
0.08434253522 
0.2480283068 
0.2535563201 
0.2536993947 
0.2539709969 
0.2510844432 
0.1315889444 
0.1257405151 
0.1354308251 
0.1602428173 
0.1656127349 
0.2249025148 
0.1639538056 
0.1632000183 
0.1643205536 
0.1726265832 
0.166874457 
0.1313608477 
0.136479477 
0.1377112988 
0.1341765423 
0.1362528438 
0.1301969753 
0.1455792681 
0.1364034757 
0.2203135059 
0.1372290525 
0.1423868092 
0.2480214326 
0.2509144224 
0.2515035803 
0.2526346884 
0.2531534534 
0.2511946411 
0.2501910211 
0.2530501044 
0.2509610723 
0.2202864293 
0.1728068758 
0.1673887048 
0.1818739758 
0.2164734163 
0.1762855506 
0.09755045082 
0.1707202908 
0.1655966485 
0.1667467279 
0.1657539358 
0.220213327 
0.2230655257 
0.2428328797 
0.2425362648 
0.2455660727 
0.2316419254 
0.2358871027 
0.2392471294 
0.2433471146 
0.2406700559 
0.2408759901 
0.2436019705 
0.2377005408 
0.1264863011 
0.1379709777 
0.1306107627 
0.2306379435 
0.2299156133 
0.2343334317 
0.234589128 
0.2298239723 
0.2265521065 
0.2269450494 
0.2335850672 
0.2262114861 
0.2378689364 
0.235846959 
0.2423131892 
0.2447856524 
0.2304053647 
0.1572317697 
0.1587432787 
0.1634548514 
0.2524164893 
0.2491229316 
0.24777262 
0.2479580578 
0.2512289316 
0.2520040255 
0.2518342608 
0.2491451595 
0.1470064913 
0.1733485329 
0.1844451625 
0.1783837477 
0.1794150276 
0.1805112894 
0.139395509 
0.1842588823 
0.1860452266 
0.1796853014 
0.1787695294 
0.1860017301 
0.1802851969 
0.193809785 
0.2510484576 
0.2482177219 
0.2492778118 
0.2465476214 
0.2504206992 
0.1559510993 
0.1587275393 
0.1567711507 
0.1608656195 
0.1653674861 