# vtk DataFile Version 3.0
MOAB 4.6.0
ASCII
DATASET UNSTRUCTURED_GRID
POINTS 133 double
0 -0.5 0.5
0 0.5 0.5
0 -0.1666666667 0.5
0 0.1666666667 0.5
0 0.5 -0.5
0 0.5 0.1666666667
0 0.5 -0.1666666667
0 -0.5 -0.5
0 0.1666666667 -0.5
0 -0.1666666667 -0.5
0 -0.5 -0.1666666667
0 -0.5 0.1666666667
0 -0.02126765447 0.1601017923
0 0.2660948883 -0.008333797701
0 0.05137122643 -0.20496936
0 -0.2273126189 -0.1089735135
0 0.2822987801 0.2636869323
0 0.2968265563 -0.2759939649
2.5 -0.5 -0.5
0.4166666667 -0.5 -0.5
0.8333333333 -0.5 -0.5
1.25 -0.5 -0.5
1.666666667 -0.5 -0.5
2.083333333 -0.5 -0.5
2.5 -0.5 0.5
2.5 -0.5 0.1666666667
2.5 -0.5 -0.1666666667
2.083333333 -0.5 0.5
1.666666667 -0.5 0.5
1.25 -0.5 0.5
0.8333333333 -0.5 0.5
0.4166666667 -0.5 0.5
0.6604523026 -0.5 -0.2104398808
0.9872447945 -0.5 -0.1805234126
1.376082357 -0.5 -0.1642906562
1.762295075 -0.5 -0.1310405967
2.125405153 -0.5 0.01187407585
1.825221566 -0.5 0.2109145329
1.495206587 -0.5 0.180014614
1.109189075 -0.5 0.1612079846
0.7287033311 -0.5 0.1265099118
0.3704148279 -0.5 -0.01398832816
2.5 0.5 -0.5
2.083333333 0.5 -0.5
1.666666667 0.5 -0.5
1.25 0.5 -0.5
0.8333333333 0.5 -0.5
0.4166666667 0.5 -0.5
2.5 -0.1666666667 -0.5
2.5 0.1666666667 -0.5
1.841446524 0.2098971156 -0.5
1.512160845 0.1806367922 -0.5
1.123529374 0.1643226638 -0.5
0.7370884795 0.1298390601 -0.5
2.131604786 0.01317692634 -0.5
0.6736966626 -0.2107137518 -0.5
1.004404349 -0.180174199 -0.5
1.389712794 -0.1610083834 -0.5
1.770820825 -0.1262162582 -0.5
0.3740197459 -0.01347911528 -0.5
2.5 0.5 0.5
2.5 0.5 -0.1666666667
2.5 0.5 0.1666666667
2.5 0.1666666667 0.5
2.5 -0.1666666667 0.5
2.5 0.1601017923 -0.02126765447
2.5 -0.008333797701 0.2660948883
2.5 -0.20496936 0.05137122643
2.5 -0.1089735135 -0.2273126189
2.5 0.2636869323 0.2822987801
2.5 -0.2759939649 0.2968265563
0.4166666667 0.5 0.5
0.8333333333 0.5 0.5
1.25 0.5 0.5
1.666666667 0.5 0.5
2.083333333 0.5 0.5
1.841446524 -0.2098971156 0.5
1.512160845 -0.1806367922 0.5
1.123529374 -0.1643226638 0.5
0.7370884795 -0.1298390601 0.5
2.131604786 -0.01317692634 0.5
0.6736966626 0.2107137518 0.5
1.004404349 0.180174199 0.5
1.389712794 0.1610083834 0.5
1.770820825 0.1262162582 0.5
0.3740197459 0.01347911528 0.5
0.6604523026 0.5 0.2104398808
0.9872447945 0.5 0.1805234126
1.376082357 0.5 0.1642906562
1.762295075 0.5 0.1310405967
2.125405153 0.5 -0.01187407585
1.825221566 0.5 -0.2109145329
1.495206587 0.5 -0.180014614
1.109189075 0.5 -0.1612079846
0.7287033311 0.5 -0.1265099118
0.3704148279 0.5 0.01398832816
0.2160764039 0.2927500606 0.02630951814
0.3273255527 0.02217706107 -0.1508534551
0.518427074 0.2243440449 -0.2251463085
0.5034689307 0.2527117133 0.1646009237
0.1827382594 0.337452203 0.3518511653
0.3857264817 0.04365047067 0.1538830251
0.1709786355 0.270390898 -0.2870618701
2.230311155 -0.2326143235 -0.328856796
2.26860404 0.1597673446 -0.2435820997
1.973394513 -0.2253895551 -0.2291754037
2.34600687 0.2903318405 0.2992280126
1.973543048 0.2504816055 0.2174074054
1.457182288 0.2038350701 0.04755564779
1.755960226 -0.04185893759 -0.170789808
1.699893355 0.274374485 -0.1891203225
1.441757917 0.05793372914 -0.2276141495
2.323995352 -0.2660777867 0.2776401639
2.023590565 -0.2411874384 0.2554839849
2.196707964 -0.06743509322 0.04461174831
1.832008362 -0.271456033 0.07437725365
1.77436924 0.03660920635 0.2002804577
0.246248588 -0.2476623952 0.09251891077
0.667868495 -0.149497211 -0.2389475107
0.7601258159 -0.1834941059 0.1016066447
1.068105102 -0.1933517158 -0.05765571445
0.7243252397 0.03323793411 0.2894783616
0.9686139822 0.2427986264 0.07809213549
1.137395501 -0.08002307266 0.1965134144
0.750680089 0.1652451456 -0.07804329693
2.092767239 0.190033868 -0.01055320539
1.982275844 0.1629306078 -0.2801247537
0.4810307622 -0.2392215729 0.2804051638
1.067118287 0.06550415605 -0.2067650557
0.2596182823 -0.2735364735 -0.2541667521
1.284517884 0.2861576676 -0.1931800842
1.448933244 -0.06258048862 0.2169171274
1.495151997 -0.2357333452 -0.1006049067
CELLS 436 2180
4 14 96 12 97
4 6 95 5 96
4 96 97 98 99
4 5 16 96 100
4 16 12 96 101
4 6 13 17 102
4 26 48 23 103
4 48 103 68 104
4 17 8 4 102
4 23 54 58 105
4 63 66 80 106
4 63 75 60 106
4 75 90 106 107
4 60 75 62 106
4 13 96 14 102
4 4 8 47 102
4 59 98 47 102
4 14 59 8 102
4 92 89 88 108
4 51 109 110 111
4 44 50 91 110
4 44 91 92 110
4 112 113 114 36
4 113 114 36 115
4 113 37 76 115
4 113 116 80 114
4 113 114 115 116
4 82 81 72 87
4 33 20 55 56
4 97 117 118 119
4 32 33 20 55
4 33 118 119 120
4 82 121 81 122
4 119 122 121 123
4 47 94 95 98
4 99 121 101 124
4 81 99 86 121
4 97 98 99 124
4 95 96 98 99
4 101 121 119 124
4 13 14 17 102
4 86 121 99 124
4 96 99 100 101
4 95 96 99 100
4 71 95 99 100
4 96 97 99 101
4 95 98 86 99
4 94 86 98 124
4 91 104 125 126
4 109 125 114 126
4 109 116 114 125
4 50 110 109 126
4 108 109 110 116
4 54 104 43 126
4 50 58 105 109
4 51 52 57 111
4 62 75 90 106
4 80 106 114 125
4 80 116 107 125
4 84 89 75 107
4 84 74 75 89
4 91 90 107 125
4 91 107 89 110
4 97 119 118 124
4 40 119 41 127
4 56 118 120 128
4 33 119 39 120
4 32 33 118 119
4 85 117 101 127
4 85 117 31 2
4 15 97 12 117
4 84 108 89 116
4 41 117 31 127
4 15 97 117 129
4 41 118 117 119
4 15 117 10 129
4 11 10 15 117
4 30 79 119 127
4 119 122 120 124
4 11 2 0 31
4 41 32 118 119
4 97 101 117 119
4 79 85 121 127
4 85 101 121 127
4 12 101 85 117
4 101 117 119 127
4 40 30 119 127
4 30 31 79 127
4 40 31 30 127
4 105 109 114 126
4 50 110 51 109
4 130 111 108 128
4 110 125 109 126
4 50 105 54 126
4 108 109 116 131
4 105 109 115 114
4 11 2 31 117
4 89 110 107 116
4 80 107 106 125
4 38 131 115 132
4 113 115 76 116
4 77 76 115 116
4 77 84 116 131
4 84 107 80 116
4 65 66 106 114
4 53 46 98 124
4 65 62 90 106
4 83 89 84 108
4 75 89 90 107
4 108 110 109 111
4 54 103 104 105
4 65 90 104 125
4 85 99 81 121
4 91 104 90 125
4 43 104 91 126
4 40 30 39 119
4 83 123 108 131
4 38 123 131 132
4 82 121 122 123
4 108 122 120 123
4 108 120 122 128
4 83 78 82 123
4 14 59 97 129
4 14 97 15 129
4 118 124 120 128
4 7 10 19 129
4 9 7 19 129
4 41 118 32 129
4 10 41 19 129
4 66 114 67 112
4 66 67 70 112
4 36 68 103 114
4 26 68 36 67
4 81 86 87 122
4 65 104 68 114
4 12 97 96 101
4 12 16 3 101
4 3 101 85 12
4 71 86 81 99
4 82 78 121 123
4 14 96 97 102
4 85 100 99 101
4 19 55 59 129
4 53 98 118 124
4 11 41 10 117
4 32 118 55 129
4 59 97 98 102
4 9 19 59 129
4 14 9 59 129
4 86 99 98 124
4 6 96 13 102
4 8 59 47 102
4 46 94 47 98
4 46 94 98 124
4 82 73 88 87
4 59 98 97 118
4 59 118 97 129
4 82 122 108 123
4 130 92 93 108
4 108 131 123 132
4 108 109 131 132
4 130 110 108 111
4 30 79 78 119
4 130 108 122 128
4 54 105 104 126
4 82 88 108 122
4 108 123 120 132
4 82 87 88 122
4 38 123 78 131
4 89 108 110 116
4 53 124 118 128
4 97 118 117 129
4 39 120 119 123
4 41 119 117 127
4 118 119 120 124
4 108 120 128 132
4 81 86 72 87
4 94 93 87 122
4 88 93 108 122
4 78 119 79 121
4 94 87 86 122
4 39 29 38 78
4 86 122 121 124
4 22 132 35 109
4 56 128 120 132
4 109 115 131 132
4 39 123 38 132
4 109 115 116 131
4 51 57 109 111
4 6 5 13 96
4 56 57 128 132
4 39 120 123 132
4 33 34 56 120
4 35 115 109 132
4 83 78 123 131
4 109 115 114 116
4 83 108 84 131
4 46 93 94 124
4 108 128 111 132
4 52 57 111 128
4 53 118 56 128
4 83 82 108 123
4 38 115 35 132
4 57 111 128 132
4 39 34 120 132
4 78 119 121 123
4 37 77 76 115
4 91 107 110 125
4 50 91 110 126
4 65 106 90 125
4 43 90 91 104
4 83 88 74 89
4 48 54 103 104
4 108 111 109 132
4 48 68 49 104
4 68 104 103 114
4 83 74 84 89
4 53 52 46 128
4 112 113 36 27
4 66 64 80 112
4 113 80 27 112
4 25 70 67 112
4 24 27 64 112
4 25 24 70 112
4 65 68 67 114
4 57 109 111 132
4 36 105 115 114
4 44 92 51 110
4 104 105 114 126
4 103 104 105 114
4 85 101 99 121
4 36 103 105 114
4 107 116 110 125
4 22 105 58 109
4 23 58 22 105
4 71 99 85 100
4 50 109 105 126
4 83 73 74 88
4 90 106 107 125
4 92 91 89 110
4 77 116 115 131
4 83 84 77 131
4 92 89 108 110
4 77 84 76 116
4 88 87 93 122
4 83 82 88 108
4 71 95 86 99
4 39 119 78 123
4 81 121 86 122
4 14 97 59 102
4 6 95 96 102
4 13 5 16 96
4 93 122 124 128
4 36 27 25 112
4 82 79 81 121
4 82 72 73 87
4 83 82 73 88
4 79 121 119 127
4 38 78 77 131
4 71 81 85 99
4 71 72 81 86
4 82 81 87 122
4 94 86 95 98
4 61 65 90 104
4 79 85 81 121
4 119 121 122 124
4 132 57 22 34
4 97 101 119 124
4 38 77 115 131
4 113 36 37 115
4 80 114 116 125
4 65 67 66 114
4 35 36 105 115
4 34 57 56 132
4 84 75 80 107
4 66 70 64 112
4 53 46 124 128
4 94 122 86 124
4 45 52 130 93
4 83 88 89 108
4 41 32 19 129
4 5 1 16 100
4 53 56 52 128
4 2 12 3 85
4 14 8 17 102
4 16 96 100 101
4 38 29 77 78
4 40 41 31 127
4 13 16 12 96
4 2 12 85 117
4 3 71 85 100
4 63 80 75 106
4 75 106 80 107
4 84 108 116 131
4 11 31 41 117
4 120 124 122 128
4 104 114 125 126
4 34 56 120 132
4 94 93 122 124
4 82 78 79 121
4 83 77 78 131
4 42 49 61 104
4 37 77 28 76
4 52 45 46 93
4 51 57 58 109
4 65 104 114 125
4 63 69 66 106
4 35 105 109 115
4 23 48 54 103
4 49 68 65 104
4 50 43 91 126
4 84 89 107 116
4 36 25 67 112
4 36 67 68 114
4 66 80 114 112
4 27 80 64 112
4 65 66 69 106
4 36 67 114 112
4 66 80 106 114
4 110 116 109 125
4 24 64 70 112
4 63 60 69 106
4 65 69 62 106
4 11 12 2 117
4 84 80 76 116
4 23 36 103 105
4 22 35 105 109
4 1 71 3 100
4 43 61 90 104
4 26 36 68 103
4 65 114 106 125
4 50 54 43 126
4 26 68 48 103
4 12 97 101 117
4 52 93 46 128
4 47 98 95 102
4 6 4 47 102
4 5 96 95 100
4 22 58 57 109
4 5 95 71 100
4 97 118 98 124
4 46 93 124 128
4 32 55 19 129
4 33 56 55 118
4 33 56 118 120
4 100 101 85 3
4 52 56 57 128
4 109 57 22 132
4 61 65 62 90
4 50 58 54 105
4 51 52 130 45
4 44 45 51 92
4 96 98 97 102
4 53 47 59 98
4 69 60 62 106
4 25 27 24 112
4 43 49 42 104
4 54 49 43 104
4 91 125 110 126
4 41 117 118 129
4 92 88 93 108
4 53 55 56 118
4 34 21 56 57
4 95 98 96 102
4 43 42 61 104
4 63 66 64 80
4 44 50 43 91
4 18 23 26 48
4 23 103 54 105
4 6 47 95 102
4 32 33 55 118
4 39 78 38 123
4 91 90 89 107
4 50 51 58 109
4 44 51 50 110
4 48 49 54 104
4 38 29 28 77
4 27 37 28 76
4 38 37 35 115
4 23 22 35 105
4 34 132 35 22
4 39 38 34 132
4 34 22 21 57
4 33 39 34 120
4 130 111 128 52
4 38 28 37 77
4 130 110 111 51
4 33 34 21 56
4 38 77 37 115
4 113 36 27 37
4 26 36 25 67
4 130 52 51 111
4 35 37 36 115
4 26 23 36 103
4 130 93 52 128
4 23 35 36 105
4 34 38 35 132
4 9 10 7 129
4 9 15 10 129
4 39 30 29 78
4 40 39 33 119
4 39 30 78 119
4 10 117 41 129
4 113 116 76 80
4 33 21 20 56
4 40 33 32 119
4 53 59 55 118
4 101 119 121 127
4 53 98 59 118
4 31 85 79 127
4 55 118 59 129
4 53 46 47 98
4 16 1 3 100
4 119 120 122 123
4 14 9 8 59
4 11 15 12 117
4 32 20 19 55
4 13 12 14 96
4 5 71 1 100
4 97 99 101 124
4 6 17 4 102
4 127 85 117 31
4 14 12 15 97
4 40 32 41 119
4 101 16 3 100
4 14 15 9 129
4 49 65 61 104
4 130 93 128 122
4 130 93 122 108
4 93 45 92 130
4 130 51 92 110
4 130 92 108 110
4 130 45 92 51
4 113 27 80 76
4 113 27 76 37
4 113 80 112 114
CELL_TYPES 436
10
10
10
10
10
10
10
10
10
10
10
10
10
10
10
10
10
10
10
10
10
10
10
10
10
10
10
10
10
10
10
10
10
10
10
10
10
10
10
10
10
10
10
10
10
10
10
10
10
10
10
10
10
10
10
10
10
10
10
10
10
10
10
10
10
10
10
10
10
10
10
10
10
10
10
10
10
10
10
10
10
10
10
10
10
10
10
10
10
10
10
10
10
10
10
10
10
10
10
10
10
10
10
10
10
10
10
10
10
10
10
10
10
10
10
10
10
10
10
10
10
10
10
10
10
10
10
10
10
10
10
10
10
10
10
10
10
10
10
10
10
10
10
10
10
10
10
10
10
10
10
10
10
10
10
10
10
10
10
10
10
10
10
10
10
10
10
10
10
10
10
10
10
10
10
10
10
10
10
10
10
10
10
10
10
10
10
10
10
10
10
10
10
10
10
10
10
10
10
10
10
10
10
10
10
10
10
10
10
10
10
10
10
10
10
10
10
10
10
10
10
10
10
10
10
10
10
10
10
10
10
10
10
10
10
10
10
10
10
10
10
10
10
10
10
10
10
10
10
10
10
10
10
10
10
10
10
10
10
10
10
10
10
10
10
10
10
10
10
10
10
10
10
10
10
10
10
10
10
10
10
10
10
10
10
10
10
10
10
10
10
10
10
10
10
10
10
10
10
10
10
10
10
10
10
10
10
10
10
10
10
10
10
10
10
10
10
10
10
10
10
10
10
10
10
10
10
10
10
10
10
10
10
10
10
10
10
10
10
10
10
10
10
10
10
10
10
10
10
10
10
10
10
10
10
10
10
10
10
10
10
10
10
10
10
10
10
10
10
10
10
10
10
10
10
10
10
10
10
10
10
10
10
10
10
10
10
10
10
10
10
10
10
10
10
10
10
10
10
10
10
10
10
10
10
10
10
10
10
10
10
10
10
10
10
10
10
10
10
10
10
10
10
10
10
10
10
10
10
10
10
10
10
10
10
10
CELL_DATA 436
SCALARS TALLY_TAG double 1
LOOKUP_TABLE default
77.11364713 
75.26584544 
76.17507941 
75.59323312 
77.02394627 
77.1463661 
77.10479709 
75.29128351 
75.78290722 
76.47015275 
77.85782404 
78.27240701 
76.64284305 
78.34964963 
77.94253155 
75.83512551 
76.53903675 
77.56195104 
77.83533004 
77.41992315 
76.95981755 
74.22344974 
77.74512671 
78.82553158 
78.5426132 
78.56687021 
76.64067089 
76.64907068 
77.02782635 
78.18926837 
76.48865088 
75.85956016 
78.36896435 
77.95428187 
75.93756802 
76.17876484 
75.17175979 
76.67204634 
78.60052376 
76.04525434 
76.69621145 
77.33201273 
77.45457963 
78.72273202 
75.29163466 
76.72703126 
77.72913871 
75.48118654 
74.62818715 
74.64876876 
77.82267138 
75.97711936 
75.20559243 
77.82350121 
76.38454312 
76.84910077 
80.95332746 
77.9363889 
76.65767962 
75.65552161 
74.90195807 
74.92605884 
77.4908594 
77.74020911 
79.79337969 
76.78532393 
78.18463895 
77.58569249 
77.55383112 
76.02335032 
75.49169463 
78.05474381 
79.98182945 
75.92460319 
78.50923051 
76.22883952 
75.19562553 
78.31529899 
75.22572486 
77.51239263 
76.35104833 
77.7761253 
79.32924783 
77.13584334 
76.7731891 
79.47626584 
77.55179879 
78.87972185 
77.94680797 
76.03135668 
76.62834095 
78.33674258 
75.90910319 
74.67711702 
78.23656248 
77.75548569 
77.62381947 
75.67388234 
77.87949859 
77.84214933 
77.63510103 
75.13158823 
77.83357619 
78.15423902 
77.3009154 
74.68328849 
79.88649585 
77.48065104 
76.37626125 
76.95885658 
77.09216272 
76.97664414 
74.88870175 
77.7849113 
73.48999723 
77.51096648 
75.91779913 
76.56896238 
76.09728978 
75.43626165 
77.53130585 
75.75461069 
77.05856099 
78.23962736 
77.66880539 
77.97639644 
75.45768516 
77.49791076 
79.40722911 
77.78821996 
82.06355747 
76.23218352 
77.55434089 
75.48499739 
77.20115662 
75.50038285 
79.11829818 
76.35193645 
75.7168349 
75.09324462 
78.32480642 
77.19112324 
77.53373992 
78.16265925 
79.05790534 
79.26267401 
76.05337811 
77.90416877 
78.30253068 
76.54130552 
78.11794202 
76.34821083 
77.48595253 
74.87486728 
77.2301724 
77.80954936 
79.76628243 
75.96259858 
77.56705722 
75.02413607 
77.36726283 
78.36776904 
77.49989212 
76.76571434 
80.20735342 
75.3516443 
77.35589873 
74.26051276 
78.54549873 
76.49940357 
79.07879539 
77.53381355 
77.14840548 
80.07535202 
75.94686835 
78.41551481 
74.2491671 
75.8172011 
75.75041753 
77.32437579 
76.54691175 
77.02606312 
75.60856721 
76.54149922 
79.40359351 
78.42122133 
78.39669151 
78.91977857 
77.0727904 
81.05650394 
78.24126662 
77.92546768 
76.75802231 
79.39981781 
76.56791155 
78.86087411 
76.14643177 
76.95801969 
75.48895706 
79.7735011 
77.722514 
77.16829336 
75.67997293 
79.36423113 
79.51427952 
77.09588868 
77.02855177 
75.55066942 
75.96853954 
75.78281413 
76.25219438 
76.53537319 
76.37319705 
76.87602296 
77.22715687 
77.11396654 
75.04587311 
79.32590731 
78.17746059 
77.82077605 
78.27212931 
79.14316073 
80.19120461 
77.26136435 
78.35469456 
79.06993065 
78.70616272 
76.71844872 
77.71710919 
76.02015176 
77.32573981 
77.14338579 
77.11744703 
77.32404326 
77.41017377 
77.57008245 
72.72942936 
74.3747709 
74.89037949 
75.43870341 
77.42401616 
75.72647697 
77.23987451 
78.33270786 
76.72156626 
76.54167596 
77.81148241 
79.50419469 
76.29176068 
77.4755115 
76.13133929 
72.94045503 
77.00307735 
77.29694423 
78.38749278 
76.92687948 
75.52516576 
79.05277322 
78.53470425 
76.84896244 
76.86402676 
77.02496599 
74.4563741 
79.42749316 
74.45938419 
77.81748972 
78.20748064 
78.02036482 
75.98487642 
77.52753859 
78.905152 
77.54911787 
78.55182567 
75.69594838 
76.09574722 
74.41829372 
76.78358039 
77.54029264 
79.00767963 
78.20747442 
77.38255962 
76.41109018 
77.00784671 
76.6801877 
75.5891216 
74.84543948 
76.95602965 
79.11068706 
77.57356767 
76.21021136 
75.93733489 
76.69923103 
77.23171862 
77.20285336 
78.19657055 
78.30801968 
74.1699045 
77.49364174 
76.12697435 
74.87485422 
78.48355681 
77.45069644 
77.42269119 
76.28632736 
78.03857269 
78.64186627 
75.22898459 
81.02503722 
75.56669851 
76.20315064 
76.82229822 
77.27245081 
79.05285815 
76.5332496 
78.44807888 
78.17322238 
77.53182968 
76.61894374 
77.34235212 
76.70002185 
79.24888959 
77.875044 
81.76950937 
75.6668006 
77.60080706 
78.37627164 
77.06460102 
75.57029032 
77.90574297 
75.76210294 
78.18370266 
75.91096446 
75.24145453 
75.97102225 
76.45626081 
75.77095183 
76.67103652 
77.25147372 
77.23890496 
76.65637344 
78.59365136 
77.8077445 
77.93298745 
75.94385242 
75.73324374 
77.4939746 
76.51436442 
76.84913816 
78.22105793 
77.84041518 
76.74679749 
77.08013633 
75.38831953 
78.2098943 
77.92765643 
76.01069765 
76.87131654 
77.86564238 
74.00177027 
77.14850885 
75.65886591 
78.45446131 
77.31994732 
74.71239968 
78.84993843 
75.40657964 
78.99016103 
77.57272682 
78.36212602 
76.99056095 
76.42343591 
80.76572214 
78.00624383 
75.81320064 
78.36721951 
76.55407846 
75.16899494 
77.09887721 
78.69661893 
78.00093407 
76.76386454 
80.67834246 
78.26530582 
77.41543751 
79.24137375 
75.29398582 
78.83136679 
76.11673152 
78.61585734 
76.16766554 
77.43741821 
78.13473213 
78.86951635 
75.54183189 
78.95496194 
79.66167707 
77.88172042 
74.80677608 
74.92701868 
76.44459949 
78.47958017 
77.83952473 
80.04149472 
79.87062393 
75.67424122 
79.33003382 
78.99917248 
79.86874007 
77.39939298 
78.4354109 
77.65599584 
76.34440669 
74.33391679 
78.08368626 
75.68980601 
74.67916161 
77.94624605 
74.59992594 
78.55217376 
77.82618703 
74.8784721 
79.09260754 
76.58547228 
76.47163943 
76.24817184 
76.82896684 
79.3321355 
76.9265376 
78.07501132 
77.17217072 
79.77231009 
77.26071235 
80.45153464 
74.2746611 
76.42671552 
79.4145442 
SCALARS ERROR_TAG double 1
LOOKUP_TABLE default
0.01895478782 
0.02104869863 
0.02025072522 
0.02538859965 
0.02007185923 
0.02773642512 
0.01758920725 
0.02056561726 
0.02556408798 
0.01704217607 
0.0200408915 
0.02032657872 
0.01762343801 
0.01988236197 
0.02447413956 
0.01955420574 
0.01736263629 
0.01972716599 
0.018718024 
0.02063295938 
0.02120411901 
0.02213987521 
0.01998945159 
0.01997336759 
0.02231613863 
0.01781438158 
0.02022577642 
0.01906351673 
0.01932393096 
0.01714033355 
0.01973473945 
0.01830669466 
0.02000594734 
0.01888332038 
0.01704906437 
0.02069244602 
0.02112924526 
0.02047095957 
0.02032597458 
0.01854827938 
0.02718576597 
0.01904613297 
0.0217358322 
0.02112644056 
0.01855020546 
0.02293278959 
0.01984140273 
0.01968591252 
0.02107608295 
0.02073163543 
0.01795961709 
0.02220328301 
0.01894622251 
0.0190778854 
0.02047496864 
0.01877795714 
0.01750471099 
0.01780459427 
0.01910708886 
0.01740119544 
0.01662637488 
0.02025074005 
0.02024541335 
0.01763723172 
0.01886690665 
0.01756324217 
0.01848880263 
0.01860958196 
0.02074313805 
0.01457291285 
0.01929765938 
0.01698730678 
0.01957559852 
0.02107045034 
0.01659595986 
0.02139267854 
0.02150326497 
0.01771554073 
0.0190013818 
0.01727480985 
0.01768389768 
0.01779187054 
0.02031558085 
0.01947158937 
0.01864136196 
0.01997836027 
0.0180227298 
0.01857834709 
0.01761056315 
0.01936521374 
0.01936710923 
0.02175870872 
0.02093176434 
0.02052713212 
0.0185442935 
0.01931249825 
0.01520427456 
0.01865885041 
0.01888078476 
0.01738812002 
0.02147470798 
0.01784128032 
0.02102083424 
0.01996306028 
0.01905694235 
0.0183115557 
0.01788590753 
0.01578753439 
0.01801883009 
0.02079485681 
0.02049367326 
0.01999799458 
0.01955900702 
0.01923008089 
0.01901273277 
0.01739467775 
0.01878319474 
0.01773868285 
0.01760774893 
0.01707468335 
0.01666641268 
0.01832880614 
0.01869348216 
0.02231091621 
0.01888291774 
0.01904498871 
0.01853475755 
0.01899392791 
0.01733540633 
0.02161313196 
0.02760019761 
0.01765768906 
0.01839569639 
0.01869071192 
0.01930340832 
0.01931683267 
0.019343156 
0.01870062035 
0.0193505829 
0.01815641293 
0.02111161589 
0.02040035324 
0.01843997437 
0.01955919313 
0.01936459702 
0.01790199841 
0.02007951864 
0.01743581008 
0.01766139817 
0.02004315956 
0.02342899803 
0.01737316032 
0.01746237115 
0.01900511413 
0.01766113869 
0.01906426452 
0.01855068704 
0.01607505333 
0.02151902404 
0.01843211397 
0.01940764833 
0.02109146545 
0.01639609689 
0.01926314664 
0.01989069059 
0.01548836686 
0.01755077699 
0.01732800173 
0.01706865377 
0.01734283179 
0.01766140206 
0.0182088232 
0.01887262528 
0.01984365538 
0.01870935936 
0.01681388784 
0.01995734428 
0.01953664924 
0.01715034723 
0.0195310917 
0.02003616054 
0.01760600651 
0.01803490809 
0.01727961558 
0.01667753575 
0.01836275262 
0.01645161368 
0.01845152081 
0.01889849359 
0.02398831241 
0.01654840923 
0.0174092724 
0.01647571943 
0.02017638408 
0.01962427209 
0.01788505283 
0.01751369394 
0.01713833455 
0.01795937167 
0.01873667357 
0.01697436489 
0.01665328111 
0.01867805783 
0.0177730971 
0.01801456179 
0.01876195752 
0.01870789901 
0.01991831444 
0.02240698575 
0.01808663127 
0.01699868536 
0.01691475876 
0.01966111114 
0.0200821945 
0.02170043238 
0.01936593084 
0.01664156095 
0.01764745774 
0.01883930522 
0.02063915274 
0.01883466447 
0.02703661183 
0.01953714494 
0.0259315409 
0.02035314185 
0.01955817571 
0.01804425702 
0.01932475918 
0.01947982907 
0.019390295 
0.02112905704 
0.01869868392 
0.01912190249 
0.01911917902 
0.01742397236 
0.0175517327 
0.02119935646 
0.01734202339 
0.02015417241 
0.02097187304 
0.0186150827 
0.01883571429 
0.01891064735 
0.01944552329 
0.01910070005 
0.01652339301 
0.01935938343 
0.01679379266 
0.01919142054 
0.0202332789 
0.0217054152 
0.02564454974 
0.01922957434 
0.01743264617 
0.02117361883 
0.01786213558 
0.01768411276 
0.02176004406 
0.01695685249 
0.0173602494 
0.01889593837 
0.018197723 
0.01940704612 
0.01754916007 
0.02121755136 
0.02082474799 
0.01725429663 
0.01724833272 
0.01695303794 
0.02209784642 
0.01730854629 
0.02061384549 
0.01940266976 
0.01705001841 
0.0169259586 
0.02866203207 
0.01662872796 
0.01957965683 
0.01983878776 
0.01673319908 
0.01906994641 
0.02561109242 
0.01854552897 
0.01780513852 
0.02733364244 
0.02211967451 
0.01776014834 
0.0173103781 
0.02342355242 
0.01736546546 
0.019347371 
0.01795895779 
0.01717160164 
0.01947078681 
0.01665363018 
0.01989661752 
0.02262366878 
0.01621400897 
0.02082818075 
0.01985587888 
0.01863986764 
0.0201499238 
0.02020379251 
0.01714708737 
0.01792166074 
0.02147129652 
0.02930750929 
0.02101709035 
0.01896315299 
0.01980044917 
0.01958638383 
0.01983834684 
0.02008246273 
0.01821416142 
0.01883012807 
0.01789010308 
0.02565781844 
0.01960061147 
0.0176057326 
0.01788884665 
0.02655954457 
0.0274550734 
0.02518510703 
0.01833661303 
0.01943400378 
0.0190169323 
0.01791122993 
0.02165306645 
0.01581473159 
0.0184476082 
0.01923257697 
0.02014424493 
0.02067642615 
0.01968999726 
0.0173966832 
0.01749199405 
0.01926921575 
0.0216118368 
0.017242927 
0.01894872384 
0.02115243967 
0.01575958299 
0.01713687286 
0.01869946616 
0.01681601779 
0.01954017448 
0.01835946443 
0.01602844029 
0.01803489748 
0.01940677083 
0.01821864459 
0.01778322677 
0.02149589673 
0.01681273439 
0.0266991227 
0.01919950578 
0.01802931931 
0.01706497149 
0.02132969044 
0.01788549917 
0.01825922009 
0.019980857 
0.01755772733 
0.02043150114 
0.01707272264 
0.02040216054 
0.01875175382 
0.01745827318 
0.02035090232 
0.0172794238 
0.01938496247 
0.01666241491 
0.01964933328 
0.0190745516 
0.01984011746 
0.01967919244 
0.01812104381 
0.01911904629 
0.02092583401 
0.01739219682 
0.0184484871 
0.01849055902 
0.01730187153 
0.01830799313 
0.02076443684 
0.01972071159 
0.0200829071 
0.01783675329 
0.01804140191 
0.01919850103 
0.01881169609 
0.02039701505 
0.0209082853 
0.01688668755 
0.02050550755 
0.01708437626 
0.01912863427 
0.02011436409 
0.02010589799 
0.0175098133 
0.01778754885 
0.01502389178 
0.01951836145 
0.01907888587 
0.01784437435 
0.01907505922 
0.0195948638 
0.02047481678 
0.01789768577 
0.01801549414 
0.01928865532 
0.01732477758 
0.02484641061 
0.01861510475 
0.0186115006 
0.01950397973 
0.01895147979 
0.02201806689 
0.0216142611 
0.02110427661 
0.02693405263 
0.01835986141 
0.01945709394 
0.01842444085 
0.0214429217 
0.02025609005 
0.01832996151 
0.02092434941 
0.02028279102 
0.02012493972 
0.01955444237 
0.02133261976 
0.01841268406 
0.01985855779 
0.0198220762 
0.01986868708 
