# vtk DataFile Version 3.0
MOAB 4.99 (Alpha)
ASCII
DATASET UNSTRUCTURED_GRID
POINTS 652 double
0 -1 1
0 1 1
0 -0.6 1
0 -0.2 1
0 0.2 1
0 0.6 1
0 1 -1
0 1 0.6
0 1 0.2
0 1 -0.2
0 1 -0.6
0 -1 -1
0 0.6 -1
0 0.2 -1
0 -0.2 -1
0 -0.6 -1
0 -1 -0.6
0 -1 -0.2
0 -1 0.2
0 -1 0.6
0 -0.4052531952 0.6719438381
0 0.001326739737 0.6398182875
0 0.4084466782 0.6730790076
0 0.671668119 0.4109975243
0 0.6409559612 0.002665308352
0 0.6741562537 -0.4067531861
0 0.4126332896 -0.6703225438
0 0.005823851008 -0.6385848783
0 -0.4033337139 -0.671818987
0 -0.6657077798 -0.40925766
0 -0.6331965555 -5.201324309e-05
0 -0.6677757402 0.4090861353
0 -0.7346057871 0.7362059947
0 0.7360229594 0.7368153064
0 0.7373579087 -0.735415146
0 -0.7338082987 -0.7362153294
0 -0.2405618544 0.2463031768
0 0.2488935914 0.2473010883
0 0.2507661259 -0.2443109294
0 -0.2398134703 -0.2452073142
0 0.004821098151 0.001021505389
5 1 1
0.3571428571 1 1
0.7142857143 1 1
1.071428571 1 1
1.428571429 1 1
1.785714286 1 1
2.142857143 1 1
2.5 1 1
2.857142857 1 1
3.214285714 1 1
3.571428571 1 1
3.928571429 1 1
4.285714286 1 1
4.642857143 1 1
5 -1 1
4.642857143 -1 1
4.285714286 -1 1
3.928571429 -1 1
3.571428571 -1 1
3.214285714 -1 1
2.857142857 -1 1
2.5 -1 1
2.142857143 -1 1
1.785714286 -1 1
1.428571429 -1 1
1.071428571 -1 1
0.7142857143 -1 1
0.3571428571 -1 1
5 -0.6 1
5 -0.2 1
5 0.2 1
5 0.6 1
0.482744013 0.6418925102 1
0.8741106426 0.6492818318 1
1.247687448 0.6682682024 1
1.609492627 0.676950116 1
1.968048943 0.6807316378 1
2.325507589 0.6823892284 1
2.682592234 0.6830063579 1
3.039645566 0.683116297 1
3.396880318 0.6830078267 1
3.754585608 0.6817569949 1
4.114658667 0.6759750758 1
4.496431974 0.6565966744 1
0.2921116603 -0.3326338679 1
0.3175477822 0.00481513306 1
0.2921870446 0.3397804688 1
4.521742213 -0.64613146 1
4.134017464 -0.6471637972 1
3.759889908 -0.655293672 1
3.396908665 -0.658880471 1
3.037969715 -0.660196626 1
2.680446604 -0.6606980858 1
2.323364081 -0.6611285356 1
1.966234542 -0.6619949497 1
1.607920889 -0.6610432776 1
1.246464651 -0.6545253818 1
0.873931116 -0.6383122315 1
0.4830655076 -0.6343465191 1
4.714012024 -0.3514748397 1
4.690456926 -0.03901827909 1
4.649145283 0.3084574333 1
0.6628677792 0.2488907225 1
1.070196338 0.3240190659 1
1.432239005 0.3435413991 1
1.790777117 0.3505561614 1
2.148492937 0.3537671526 1
2.505688787 0.355276405 1
2.862779222 0.3558839174 1
3.220253744 0.356192309 1
3.577948983 0.3560454127 1
3.935509915 0.3562385195 1
4.28907868 0.3528178115 1
0.6630520447 -0.2347176539 1
4.364162751 -0.2670538295 1
3.952788236 -0.3024282251 1
3.581599815 -0.3132198253 1
3.220122052 -0.3164761731 1
2.861682438 -0.3176398075 1
2.504349861 -0.318419623 1
2.147187136 -0.3197095355 1
1.789279015 -0.3204263535 1
1.430865141 -0.3176402594 1
1.069650922 -0.3028775147 1
0.9451495039 0.01015558316 1
1.260236406 0.01263206525 1
1.61237784 0.01504774283 1
1.969360709 0.01716947347 1
2.326675216 0.01880874609 1
2.683896221 0.01986298316 1
3.041571523 0.02066208959 1
3.400242546 0.02189764603 1
3.761069126 0.026584299 1
4.120501615 0.04080424586 1
4.422669051 0.07920147641 1
3 -1 -1
0.375 -1 -1
0.75 -1 -1
1.125 -1 -1
1.5 -1 -1
1.875 -1 -1
2.25 -1 -1
2.625 -1 -1
3.25 -1 -0.75
3.5 -1 -0.5
3.75 -1 -0.25
4 -1 4.440892099e-16
4.25 -1 0.25
4.5 -1 0.5
4.75 -1 0.75
2.877866561 -1 -0.6755529305
4.466645995 -1 0.7799718639
4.15280434 -1 0.6500891687
3.744849511 -1 0.6781640208
3.384444189 -1 0.6885527835
3.031687596 -1 0.6860143389
2.676058569 -1 0.6836451497
2.319425934 -1 0.6842127889
1.963134806 -1 0.6842452442
1.606093592 -1 0.6835537029
1.244846648 -1 0.6822157568
0.8748113689 -1 0.6781491946
0.488578244 -1 0.6668446301
0.3170049312 -1 -0.4252814992
0.4077285388 -1 -0.003466741127
0.3131685698 -1 0.3634517965
0.5501362842 -1 -0.6938504823
0.9155519405 -1 -0.6680337392
1.291756847 -1 -0.6599682995
1.666638369 -1 -0.6541282701
2.045168313 -1 -0.63918873
2.464716759 -1 -0.5887644472
3.147253932 -1 -0.3957412245
3.415979672 -1 -0.1524561669
3.662508158 -1 0.07786500732
3.891906658 -1 0.340410147
0.2484282431 -1 -0.7438263963
3.544099378 -1 0.3844311793
3.208609393 -1 0.3788439097
2.856672571 -1 0.3611676186
2.497685532 -1 0.3652367986
2.145431733 -1 0.3652176412
1.790870835 -1 0.3613904119
1.428868554 -1 0.3577146123
1.055032367 -1 0.352293812
0.666611754 -1 0.3454775693
0.6886102072 -1 -0.3487419104
1.07774774 -1 -0.3247265714
1.456056321 -1 -0.3143817712
1.826341752 -1 -0.3028155093
2.187980354 -1 -0.2761973221
2.783962278 -1 -0.304309983
3.065065827 -1 0.01015688884
3.379252486 -1 0.1397681636
2.669063183 -1 0.04436782775
2.327723373 -1 0.05337338446
1.983419821 -1 0.03871966558
1.622889569 -1 0.02780615007
1.250157664 -1 0.0190498259
0.8576480453 -1 0.006647664037
2.486689189 -1 -0.214306108
3 1 -1
2.625 1 -1
2.25 1 -1
1.875 1 -1
1.5 1 -1
1.125 1 -1
0.75 1 -1
0.375 1 -1
3 0.6 -1
3 0.2 -1
3 -0.2 -1
3 -0.6 -1
0.5051722492 -0.6423612468 -1
0.9126445746 -0.6436367449 -1
1.305865967 -0.6580484746 -1
1.688419081 -0.6656634151 -1
2.070560737 -0.6699173913 -1
2.47095257 -0.654958819 -1
0.3045321161 0.3321450215 -1
0.3297045651 -0.003954053695 -1
0.3031518466 -0.3391619139 -1
2.496518416 0.6444993806 -1
2.089437641 0.6484888302 -1
1.696472775 0.6606559536 -1
1.310410893 0.6601586509 -1
0.9145626663 0.6430290874 -1
0.5048111999 0.6367418762 -1
2.698685229 0.3478643401 -1
2.673925788 0.03759912285 -1
2.630822662 -0.307407269 -1
0.6891800874 -0.2413179328 -1
1.117995254 -0.31081986 -1
1.501602224 -0.3288992524 -1
1.879773297 -0.3413765722 -1
2.251995373 -0.347453633 -1
0.6906986346 0.241721174 -1
2.330694409 0.2691157534 -1
1.898453339 0.3123467399 -1
1.50523074 0.3255357202 -1
1.119997336 0.3128153358 -1
0.9871659053 0.001021893381 -1
1.32151729 -0.0007785871564 -1
1.696158716 -0.0108146455 -1
2.074427116 -0.0329213637 -1
2.39237307 -0.07621347787 -1
4.75 1 0.75
4.5 1 0.5
4.25 1 0.25
4 1 4.440892099e-16
3.75 1 -0.25
3.5 1 -0.5
3.25 1 -0.75
2.867030953 1 -0.6988650116
2.474156348 1 -0.6753229026
2.081373182 1 -0.6694615696
1.695617643 1 -0.6705909607
1.318141903 1 -0.6727467173
0.9467425247 1 -0.6787770531
0.579301257 1 -0.692131811
0.2966572502 1 0.3479323442
0.3241496123 1 0.02376682941
0.3643749589 1 -0.3806445717
0.485716375 1 0.6443037771
0.8800449263 1 0.6479805007
1.258999023 1 0.6599585407
1.627576335 1 0.6665410642
1.992246343 1 0.675675885
2.342665234 1 0.6931979882
2.681091077 1 0.6959396101
3.027627048 1 0.687960259
3.382579572 1 0.6864233704
3.744321748 1 0.676246905
4.152084187 1 0.6497025488
4.466131123 1 0.7799405098
3.890813684 1 0.3384736659
3.659004062 1 0.07254382364
3.405194921 1 -0.1603653669
3.128426869 1 -0.4097638991
0.2637352432 1 -0.7345552765
2.720338544 1 -0.3408740157
2.295598811 1 -0.322994355
1.889368806 1 -0.3319666464
1.503718198 1 -0.3398258772
1.12851383 1 -0.351934221
0.7604094643 1 -0.3734137491
0.6595163808 1 0.2627546758
1.082906048 1 0.3076146985
1.465840553 1 0.3258328481
1.843290824 1 0.3407665621
2.217501637 1 0.3707181543
2.520422244 1 0.4397403716
2.830048503 1 0.3778663286
3.195516991 1 0.3770857233
3.539696214 1 0.3801662191
3.365161368 1 0.1338919498
3.024667224 1 0.006768532576
2.526500835 1 0.07813469086
2.075540656 1 0.0220886965
1.680219242 1 0.0005716096516
1.298625226 1 -0.01625876604
0.923823613 1 -0.04473675753
0.6064548059 1 -0.1024547146
3.210534347 0.3456156476 -0.7894656535
3.237579789 0.02323972097 -0.7624202105
3.260077995 -0.3369398435 -0.7399220054
4.66128468 0.6420733885 0.6612846795
4.387425658 0.6478035315 0.3874256579
4.127422783 0.6605799727 0.1274227835
3.874334095 0.6591986653 -0.1256659048
3.615032709 0.6473723453 -0.3849672912
3.34148886 0.6428667433 -0.6585111399
4.794943029 -0.3328127876 0.7949430294
4.776893838 0.004760438475 0.776893838
4.79476624 0.3398623493 0.7947662396
3.352897705 -0.6767119424 -0.6471022951
3.612851485 -0.685585578 -0.3871485146
3.86653946 -0.6683737223 -0.1334605404
4.125233072 -0.6591947061 0.1252330723
4.387426995 -0.6404608724 0.3874269946
4.661396082 -0.634846041 0.6613960816
3.470461255 0.2667555942 -0.5295387448
3.471725451 -0.1303904056 -0.5282745489
4.53529653 0.2465105609 0.5352965303
4.251750301 0.3149278043 0.2517503015
3.999672335 0.3263318987 -0.0003276647424
3.748686449 0.3210592429 -0.2513135508
4.535235548 -0.2376028235 0.535235548
3.482398389 -0.4309857217 -0.5176016111
3.708720333 -0.317234075 -0.2912796668
3.990796674 -0.3252886488 -0.009203326325
4.249586538 -0.3093708721 0.2495865382
3.654619287 0.02856387022 -0.3453807126
4.338265664 0.003206383659 0.3382656643
4.11726241 0.002072593402 0.1172624102
3.869959581 0.005917480259 -0.1300404185
1.254151225 0.004938210826 0.2268580347
1.258093715 0.4185037315 0.2180146426
1.585455537 0.24798657 0.4220694005
1.425955296 0.2222011536 -0.0003622576769
1.289391756 0.004154899623 -0.2217102349
1.406356692 0.2215114087 -0.444965601
1.614735484 -0.0234266296 -0.2193821222
1.594019175 -0.02205472812 0.2286124229
1.761645436 0.2092958093 0.07703255117
1.186550021 0.4443460405 -0.2271352559
1.290576458 0.6678672433 -0.01039546821
1.656060696 0.4720394611 0.2017775327
2.946068764 0.2709674835 0.1041740552
3.014223814 0.00540857669 -0.04753035679
2.893977165 0.179529354 -0.2602925897
3.315015316 0.2079574168 -0.217238605
3.184316158 0.07663551718 0.3980130851
3.277302504 0.4510525465 0.135126546
2.988688707 0.459254235 0.4394773841
0.294485718 -0.7756041288 -0.6830466986
0.4735782146 -0.7443722486 -0.3311778009
0.7359229326 -0.5096852183 -0.6587554812
2.920715094 0.03859656677 0.301337719
0.7182064652 0.003259686986 -0.4648275077
0.999706924 0.0616495572 -0.344335407
0.9743324518 -0.005160749424 -0.6427494287
0.8603745699 0.2504629493 -0.4456205964
0.7148886323 0.007733854 -0.1816662252
0.4794034064 0.1719390005 -0.2227733135
0.452232182 -0.2293792963 -0.2214475572
0.8579045534 -0.2245757431 -0.4406814277
0.3488702178 -0.1547007859 -0.51195544
1.776361823 -0.2543159723 -0.7265589833
1.733326793 0.02463478781 -0.6439775229
1.895905614 -0.143343091 -0.3649022281
0.2467416823 -0.6085521579 0.5640035868
[...]
CELL_DATA 4460
SCALARS TALLY_TAG double 1
LOOKUP_TABLE default
0 
0 
0 
0 
0 
0 
0 
0 
0 
0 
0 
0 
0 
0 
0 
0 
0 
0 
0 
0 
0 
0 
0 
0 
0 
0 
0 
0 
0 
0 
0 
0 
0 
0 
0 
0 
0 
0 
0 
0 
0 
0 
0 
0 
0 
0 
0 
0 
0 
0 
0 
0 
0 
0 
0 
0 
0 
0 
0 
0 
0 
0 
0 
0 
0 
0 
0 
0 
0 
0 
0 
0 
0 
0 
0 
0 
0 
0 
0 
0 
0 
0 
0 
0 
0 
0 
0 
0 
0 
0 
0 
0 
0 
0 
0 
0 
0 
0 
0 
0 
0 
0 
0 
0 
0 
0 
0 
0 
0 
0 
0 
0 
0 
0 
0 
0 
0 
0 
0 
0 
0 
0 
0 
0 
0 
0 
0 
0 
0 
0 
0 
0 
0 
0 
0 
0 
0 
0 
0 
0 
0 
0 
0 
0 
0 
0 
0 
0 
0 
0 
0 
0 
0 
0 
0 
0 
0 
0 
0 
0 
0 
0 
0 
0 
0 
0 
0 
0 
0 
0 
0 
0 
0 
0 
0 
0 
0 
0 
0 
0 
0 
0 
0 
0 
0 
0 
0 
0 
0 
0 
0 
0 
0 
0 
0 
0 
0 
0 
0 
0 
0 
0 
0 
0 
0 
0 
0 
0 
0 
0 
0 
0 
0 
0 
0 
0 
0 
0 
0 
0 
0 
0 
0 
0 
0 
0 
0 
0 
0 
0 
0 
0 
0 
0 
0 
0 
0 
0 
0 
0 
0 
0 
0 
0 
0 
0 
0 
0 
0 
0 
0 
0 
0 
0 
0 
0 
0 
0 
0 
0 
0 
0 
0 
0 
0 
0 
0 
0 
0 
0 
0 
0 
0 
0 
0 
0 
0 
0 
0 
0 
0 
0 
0 
0 
0 
0 
0 
0 
0 
0 
0 
0 
0 
0 
0 
0 
0 
0 
0 
0 
0 
0 
0 
0 
0 
0 
0 
0 
0 
0 
0 
0 
0 
0 
0 
0 
0 
0 
0 
0 
0 
0 
0 
0 
0 
0 
0 
0 
0 
0 
0 
0 
0 
0 
0 
0 
0 
0 
0 
0 
0 
0 
0 
0 
0 
0 
0 
0 
0 
0 
0 
0 
0 
0 
0 
0 
0 
0 
0 
0 
0 
0 
0 
0 
0 
0 
0 
0 
0 
0 
0 
0 
0 
0 
0 
0 
0 
0 
0 
0 
0 
0 
0 
0 
0 
0 
0 
0 
0 
0 
0 
0 
0 
0 
0 
0 
0 
0 
0 
0 
0 
0 
0 
0 
0 
0 
0 
0 
0 
0 
0 
0 
0 
0 
0 
0 
0 
0 
0 
0 
0 
0 
0 
0 
0 
0 
0 
0 
0 
0 
0 
0 
0 
0 
0 
0 
0 
0 
0 
0 
0 
0 
0 
0 
0 
0 
0 
0 
0 
0 
0 
0 
0 
0 
0 
0 
0 
0 
0 
0 
0 
0 
0 
0 
0 
0 
0 
0 
0 
0 
0 
0 
0 
0 
0 
0 
0 
0 
0 
0 
0 
0 
0 
0 
0 
0 
0 
0 
0 
0 
0 
0 
0 
0 
0 
0 
0 
0 
0 
0 
0 
0 
0 
0 
0 
0 
0 
0 
0 
0 
0 
0 
0 
0 
0 
0 
0 
0 
0 
0 
0 
0 
0 
0 
0 
0 
0 
0 
0 
0 
0 
0 
0 
0 
0 
0 
0 
0 
0 
0 
0 
0 
0 
0 
0 
0 
0 
0 
0 
0 
0 
0 
0 
0 
0 
0 
0 
0 
0 
0 
0 
0 
0 
0 
0 
0 
0 
0 
0 
0 
0 
0 
0 
0 
0 
0 
0 
0 
0 
0 
0 
0 
0 
0 
0 
0 
0 
0 
0 
0 
0 
0 
0 
0 
0 
0 
0 
0 
0 
0 
0 
0 
0 
0 
0 
0 
0 
0 
0 
0 
0 
0 
0 
0 
0 
0 
0 
0 
0 
0 
0 
0 
0 
0 
0 
0 
0 
0 
0 
0 
0 
0 
0 
0 
0 
0 
0 
0 
0 
0 
0 
0 
0 
0 
0 
0 
0 
0 
0 
0 
0 
0 
0 
0 
0 
0 
0 
0 
0 
0 
0 
0 
0 
0 
0 
0 
0 
0 
0 
0 
0 
0 
0 
0 
0 
0 
0 
0 
0 
0 
0 
0 
0 
0 
0 
0 
0 
0 
0 
0 
0 
0 
0 
0 
0 
0 
0 
0 
0 
0 
0 
0 
0 
0 
0 
0 
0 
0 
0 
0 
0 
0 
0 
0 
0 
0 
0 
0 
0 
0 
0 
0 
0 
0 
0 
0 
0 
0 
0 
0 
0 
0 
0 
0 
0 
0 
0 
0 
0 
0 
0 
0 
0 
0 
0 
0 
0 
0 
0 
0 
0 
0 
0 
0 
0 
0 
0 
0 
0 
0 
0 
0 
0 
0 
0 
0 
0 
0 
0 
0 
0 
0 
0 
0 
0 
0 
0 
0 
0 
0 
0 
0 
0 
0 
0 
0 
0 
0 
0 
0 
0 
0 
0 
0 
0 
0 
0 
0 
0 
0 
0 
0 
0 
0 
0 
0 
0 
0 
0 
0 
0 
0 
0 
0 
0 
0 
0 
0 
0 
0 
0 
0 
0 
0 
0 
0 
0 
0 
0 
0 
0 
0 
0 
0 
0 
0 
0 
0 
0 
0 
0 
0 
0 
0 
0 
0 
0 
0 
0 
0 
0 
0 
0 
0 
0 
0 
0 
0 
0 
0 
0 
0 
0 
0 
0 
0 
0 
0 
0 
0 
0 
0 
0 
0 
0 
0 
0 
0 
0 
0 
0 
0 
0 
0 
0 
0 
0 
0 
0 
0 
0 
0 
0 
0 
0 
0 
0 
0 
0 
0 
0 
0 
0 
0 
0 
0 
0 
0 
0 
0 
0 
0 
0 
0 
0 
0 
0 
0 
0 
0 
0 
0 
0 
0 
0 
0 
0 
0 
0 
0 
0 
0 
0 
0 
0 
0 
0 
0 
0 
0 
0 
0 
0 
0 
0 
0 
0 
0 
0 
0 
0 
0 
0 
0 
0 
0 
0 
0 
0 
0 
0 
0 
0 
0 
0 
0 
0 
0 
0 
0 
0 
0 
0 
0 
0 
0 
0 
0 
0 
0 
0 
0 
0 
0 
0 
0 
0 
0 
0 
0 
0 
0 
0 
0 
0 
0 
0 
0 
0 
0 
0 
0 
0 
0 
0 
0 
0 
0 
0 
0 
0 
0 
0 
0 
0 
0 
0 
0 
0 
0 
0 
0 
0 
0 
0 
0 
0 
0 
0 
0 
0 
0 
0 
0 
0 
0 
0 
0 
0 
0 
0 
0 
0 
0 
0 
0 
0 
0 
0 
0 
0 
0 
0 
0 
0 
0 
0 
0 
0 
0 
0 
0 
0 
0 
0 
0 
0 
0 
0 
0 
0 
0 
0 
0 
0 
0 
0 
0 
0 
0 
0 
0 
0 
0 
0 
0 
0 
0 
0 
0 
0 
0 
0 
0 
0 
0 
0 
0 
0 
0 
0 
0 
0 
0 
0 
0 
0 
0 
0 
0 
0 
0 
0 
0 
0 
0 
0 
0 
0 
0 
0 
0 
0 
0 
0 
0 
0 
0 
0 
0 
0 
0 
0 
0 
0 
0 
0 
0 
0 
0 
0 
0 
0 
0 
0 
0 
0 
0 
0 
0 
0 
0 
0 
0 
0 
0 
0 
0 
0 
0 
0 
0 
0 
0 
0 
0 
0 
0 
0 
0 
0 
0 
0 
0 
0 
0 
0 
0 
0 
0 
0 
0 
0 
0 
0 
0 
0 
0 
0 
0 
0 
0 
0 
0 
0 
0 
0 
0 
0 
0 
0 
0 
0 
0 
0 
0 
0 
0 
0 
0 
0 
0 
0 
0 
0 
0 
0 
0 
0 
0 
0 
0 
0 
0 
0 
0 
0 
0 
0 
0 
0 
0 
0 
0 
0 
0 
0 
0 
0 
0 
0 
0 
0 
0 
0 
0 
0 
0 
0 
0 
0 
0 
0 
0 
0 
0 
0 
0 
0 
0 
0 
0 
0 
0 
0 
0 
0 
0 
0 
0 
0 
0 
0 
0 
0 
0 
0 
0 
0 
0 
0 
0 
0 
0 
0 
0 
0 
0 
0 
0 
0 
0 
0 
0 
0 
0 
0 
0 
0 
0 
0 
0 
0 
0 
0 
0 
0 
0 
0 
0 
0 
0 
0 
0 
0 
0 
0 
0 
0 
0 
0 
0 
0 
0 
0 
0 
0 
0 
0 
0 
0 
0 
0 
0 
0 
0 
0 
0 
0 
0 
0 
0 
0 
0 
0 
0 
0 
0 
0 
0 
0 
0 
0 
0 
0 
0 
0 
0 
0 
0 
0 
0 
0 
0 
0 
0 
0 
0 
0 
0 
0 
0 
0 
0 
0 
0 
0 
0 
0 
0 
0 
0 
0 
0 
0 
0 
0 
0 
0 
0 
0 
0 
0 
0 
0 
0 
0 
0 
0 
0 
0 
0 
0 
0 
0 
0 
0 
0 
0 
0 
0 
0 
0 
0 
0 
0 
0 
0 
0 
0 
0 
0 
0 
0 
0 
0 
0 
0 
0 
0 
0 
0 
0 
0 
0 
0 
0 
0 
0 
0 
0 
0 
0 
0 
0 
0 
0 
0 
0 
0 
0 
0 
0 
0 
0 
0 
0 
0 
0 
0 
0 
0 
0 
0 
0 
0 
0 
0 
0 
0 
0 
0 
0 
0 
0 
0 
0 
0 
0 
0 
0 
0 
0 
0 
0 
0 
0 
0 
0 
0 
0 
0 
0 
0 
0 
0 
0 
0 
0 
0 
0 
0 
0 
0 
0 
0 
0 
0 
0 
0 
0 
0 
0 
0 
0 
0 
0 
0 
0 
0 
0 
0 
0 
0 
0 
0 
0 
0 
0 
0 
0 
0 
0 
0 
0 
0 
0 
0 
0 
0 
0 
0 
0 
0 
0 
0 
0 
0 
0 
0 
0 
0 
0 
0 
0 
0 
0 
0 
0 
0 
0 
0 
0 
0 
0 
0 
0 
0 
0 
0 
0 
0 
0 
0 
0 
0 
0 
0 
0 
0 
0 
0 
0 
0 
0 
0 
0 
0 
0 
0 
0 
0 
0 
0 
0 
0 
0 
0 
0 
0 
0 
0 
0 
0 
0 
0 
0 
0 
0 
0 
0 
0 
0 
0 
0 
0 
0 
0 
0 
0 
0 
0 
0 
0 
0 
0 
0 
0 
0 
0 
0 
0 
0 
0 
0 
0 
0 
0 
0 
0 
0 
0 
0 
0 
0 
0 
0 
0 
0 
0 
0 
0 
0 
0 
0 
0 
0 
0 
0 
0 
0 
0 
0 
0 
0 
0 
0 
0 
0 
0 
0 
0 
0 
0 
0 
0.6119018011 
0.618486017 
0.6234055357 
0.6237567776 
0.6260423732 
0.6272624484 
0.5856322115 
0.5902084802 
0.6066020292 
0.6016288062 
0.6190937172 
0.6166343356 
0.6212434495 
0.6032657487 
0.5891757577 
0.603854428 
0.6170868278 
0.5476796054 
0.6192730308 
0.6174542642 
0.6113480756 
0.6306122206 
0.6185798222 
0.6303326892 
0.6106768926 
0.6081332499 
0.617314309 
0.6091670139 
0.611136856 
0.609155826 
0.6204965929 
0.5777195209 
0.6026471257 
0.5936200145 
0.5897323847 
0.6169425779 
0.6285337058 
0.6128034203 
0.5965708319 
0.611516534 
0.6132780069 
0.5510788218 
0.625141265 
0.601205927 
0.6112223366 
0.6218437153 
0.607142549 
0.6159265717 
0.6055082241 
0.6127384511 
0.6122589737 
0.6051351986 
0.5988098447 
0.6204178942 
0.6161046726 
0.6220623169 
0.6230953005 
0.619094428 
0.6208720037 
0.618751242 
0.6132507308 
0.6134133836 
0.5848452757 
0.6179923641 
0.6100059544 
0.6175739029 
0.6296542702 
0.6028565005 
0.6035041957 
0.6072458951 
0.6000684029 
0.608548534 
0.616949474 
0.6118795225 
0.6005864802 
0.6029504612 
0.6032343873 
0.604987945 
0.6090399841 
0.5911772338 
0.6127862507 
0.6087873779 
0.6071033618 
0.6120021972 
0.6082950059 
0.6149481566 
0.6187219064 
0.6247758749 
0.6141535631 
0.6141383728 
0.6054432141 
0.6174519747 
0.6078314313 
0.6127257063 
0.6058270361 
0.6074322589 
0.5999133388 
0.6229131916 
0.6161151065 
0.6049733756 
0.6199254417 
0.6109073607 
0.6148525132 
0.5990215222 
0.5949597387 
0.6035168358 
0.5973530465 
0.5904728955 
0.6080798459 
0.5866324159 
0.5987830578 
0.5965319686 
0.6043253988 
0.5761156165 
0.60167702 
0.589627638 
0.5907880983 
0.5932136259 
0.6020106602 
0.6043733037 
0.6091229573 
0.6178156006 
0.6068440334 
0.603930372 
0.621638709 
0.6165005598 
0.6105563578 
0.6256659816 
0.6238302798 
0.6192830052 
0.6085814138 
0.611684962 
0.5999111838 
0.6037818855 
0.5949779133 
0.5835973032 
0.6020155799 
0.59514372 
0.6140904689 
0.6144004546 
0.6004085834 
0.5935677982 
0.6013633774 
0.6130098986 
0.6088307581 
0.6119100963 
0.6026561956 
0.6085397194 
0.6085154032 
0.6082948472 
0.6272121138 
0.6207893152 
0.5574316657 
0.604284919 
0.6005201551 
0.6127243139 
0.5999030258 
0.62281703 
0.6170606323 
0.6117331018 
0.6019418371 
0.6272231424 
0.6082219526 
0.6121172895 
0.6181412955 
0.5968260071 
0.6161696333 
0.6082055218 
0.6304014282 
0.5580363228 
0.6191208446 
0.6107364207 
0.5454854077 
0.6037679728 
0.6099982042 
0.6175968465 
0.6157140048 
0.6230062453 
0.6325122213 
0.6124443605 
0.6049339397 
0.6177257551 
0.6156171093 
0.6062946775 
0.6048089293 
0.610778896 
0.6123256496 
0.6117417785 
0.6110942337 
0.6224463781 
0.5936048944 
0.5984644435 
0.6118664428 
0.602249283 
0.6039871678 
0.5985544917 
0.5926437563 
0.6231659429 
0.6133275482 
0.6132818242 
0.6272987435 
0.6166151314 
0.6123497066 
0.6220329016 
0.6032339127 
0.596067934 
0.6108558658 
0.608157858 
0.6077344177 
0.596472973 
0.5918416547 
0.6022918545 
0.6051394945 
0.5482586514 
0.5386733535 
0.6011264132 
0.6002868394 
0.6134100641 
0.628649343 
0.6274649165 
0.6022464344 
0.6127152393 
0.6220981908 
0.6160520699 
0.6164320765 
0.6187623193 
0.6182809005 
0.6087548156 
0.6139772123 
0.603828103 
0.5997615947 
0.5915299978 
0.6049205995 
0.616658144 
0.6170827896 
0.6046815585 
0.6197657904 
0.601502883 
0.5408756016 
0.6116400481 
0.6191435486 
0.6168840129 
0.6117373572 
0.6279126287 
0.6175632622 
0.6157570439 
0.6118183096 
0.5941342461 
0.6072093276 
0.6048511336 
0.621121658 
0.5897971434 
0.6007703544 
0.597749212 
0.5956111892 
0.6109417904 
0.6091345934 
0.6154386221 
0.5797436197 
0.6037602786 
0.6153749226 
0.5942016991 
0.6093014794 
0.6073294333 
0.5983342795 
0.6076721859 
0.6230153295 
0.6061602232 
0.6141810796 
0.6122481134 
0.6089401415 
0.6211774938 
0.6151964063 
0.6187059671 
0.5861413541 
0.5975382698 
0.6164877213 
0.6165353136 
0.6281938945 
0.6191485306 
0.6240146826 
0.6202366368 
0.6167569514 
0.6104194674 
0.62337196 
0.6181367819 
0.6126007891 
0.6106665826 
0.5981585968 
0.6237843334 
0.611060448 
0.6110546207 
0.6114174577 
0.6012080302 
0.5940197993 
0.600504123 
0.6019720022 
0.615916414 
0.6167901194 
0.6129597719 
0.6113593991 
0.6046933014 
0.5997661855 
0.622832805 
0.6163458485 
0.6154853519 
0.6034993714 
0.6208107824 
0.6063283583 
0.6154965788 
0.6233836949 
0.6265919377 
0.6264232801 
0.6117331156 
0.6070452267 
0.6103327251 
0.5977960236 
0.6237809535 
0.6255621962 
0.6178775242 
0.6091868616 
0.6246992065 
0.6388393476 
0.5819040348 
0.5610974396 
0.5809463722 
0.5489142899 
0.5643476947 
0.5746205925 
0.6095838692 
0.6179052973 
0.609523751 
0.6043902369 
0.5997483665 
0.6106066741 
0.5986639765 
0.5987115443 
0.5946309892 
0.6070809874 
0.6116946659 
0.6022370261 
0.5997070766 
0.5972898399 
0.6036364167 
0.5798186693 
0.6121795932 
0.5897649133 
0.5972530404 
0.5931950707 
0.584928307 
0.605692157 
0.5853086193 
0.6093744371 
0.6032847894 
0.593321053 
0.5910026312 
0.6064911432 
0.6004144391 
0.5646859549 
0.5862637569 
0.6088399736 
0.6004601935 
0.604777868 
0.6020595808 
0.6000091631 
0.595806285 
0.5965253938 
0.6047170101 
0.6048299601 
0.5942943953 
0.5993049698 
0.5890850789 
0.5827653541 
0.5831264947 
0.6093755498 
0.5994959321 
0.5915224824 
0.5898454958 
0.5756089975 
0.6050600264 
0.5900312104 
0.5748515016 
0.6037750675 
0.5756921158 
0.6031509051 
0.5940688675 
0.5805879818 
0.6130848471 
0.6109157844 
0.6071532574 
0.6132393127 
0.6117189228 
0.6040376297 
0.6288990036 
0.6202836589 
0.5809758477 
0.5850052057 
0.5887892725 
0.5892833613 
0.6004382292 
0.6156168815 
0.5937660693 
0.6043490681 
0.597741351 
0.5844597343 
0.5925125359 
0.570516308 
0.5886290631 
0.5970389399 
0.5882272328 
0.608428201 
0.5937727965 
0.5782830829 
0.5879245286 
0.5726467109 
0.5750888981 
0.590243342 
0.6044955915 
0.5836734272 
0.5771500706 
0.580950954 
0.5868226178 
0.5954958538 
0.5894681782 
0.599709735 
0.6002532774 
0.5834058817 
0.5739933394 
0.5975375095 
0.579482051 
0.5921319726 
0.5830361008 
0.5738682567 
0.6010039994 
0.552090402 
0.5540403573 
0.5487066245 
0.5595528773 
0.573001299 
0.5491564595 
0.5545743517 
0.5510573501 
0.6087869121 
0.6187522502 
0.6091221387 
0.6220984651 
0.6379807398 
0.619615302 
0.6023582274 
0.6100639284 
0.625487291 
0.6044901126 
0.6293260285 
0.6093609171 
0.609342938 
0.611020436 
0.6205697987 
0.6268243448 
0.6196037147 
0.6245504064 
0.6009426497 
0.6109628806 
0.608535264 
0.6055534485 
0.6019023943 
0.5943190069 
0.5997859691 
0.6107154158 
0.601806933 
0.6099218185 
0.6056882693 
0.6050343505 
0.6231957433 
0.6176906562 
0.614074033 
0.6089038172 
0.6101763207 
0.6097106878 
0.6106637672 
0.5881261223 
0.6009172203 
0.6168380642 
0.6111456361 
0.6267985286 
0.6197173928 
0.6018573363 
0.6135705986 
0.6098246086 
0.6067428539 
0.6052819154 
0.6075709516 
0.6185965705 
0.5834224137 
0.6194973643 
0.6190542588 
0.6110766793 
0.6049592891 
0.6010525151 
0.6011845126 
0.6141516626 
0.5738806145 
0.6135536681 
0.6096845177 
0.6385582831 
0.6053440117 
0.6093308948 
0.6041031104 
0.6077935315 
0.6177448819 
0.6159095191 
0.6202061378 
0.6187196205 
0.6085066078 
0.6166003377 
0.5990409695 
0.6125293546 
0.6178588788 
0.6105777686 
0.607792735 
0.5936453962 
0.6223275929 
0.6181296691 
0.6272472134 
0.601598431 
0.6162880562 
0.6120378779 
0.5928878922 
0.6177443038 
0.6053580282 
0.6151052004 
0.6143166411 
0.6107623441 
0.5955551604 
0.6157444826 
0.6223277187 
0.6078572861 
0.6134989392 
0.6213161 
0.5770405573 
0.6218353315 
0.5525516792 
0.6125319869 
0.6009260664 
0.5978275111 
0.5727814734 
0.5877970126 
0.5542065375 
0.5759030884 
0.5963628831 
0.5993946147 
0.5975615183 
0.608005068 
0.6000551071 
0.5956885124 
0.6155109152 
0.6228934701 
0.6211764018 
0.6100183359 
0.6143104797 
0.6210420565 
0.6240240189 
0.6142370227 
0.6136975244 
0.5995322679 
0.5525594179 
0.6157106829 
0.6207601449 
0.6203128098 
0.6226833991 
0.6253228665 
0.6062943288 
0.6122184589 
0.6084618043 
0.6411348289 
0.6198687744 
0.6060631735 
0.619928201 
0.610234405 
0.6129711099 
0.6063676851 
0.6207183272 
0.6126063779 
0.5959797513 
0.5989837244 
0.627739778 
0.6247374595 
0.5863887775 
0.5892161203 
0.6211659315 
0.6235718353 
0.5396566012 
0.6164546745 
0.6045424475 
0.6192872341 
0.5967445736 
0.6139043752 
0.6062480352 
0.6140456208 
0.6195109861 
0.6160131042 
0.5968548646 
0.6180611688 
0.6147753977 
0.6040274675 
0.6003300858 
0.6199659509 
0.6025868544 
0.6216261731 
0.6100156724 
0.6230384923 
0.5730090618 
0.5906391387 
0.6217676669 
0.6101895614 
0.6057018716 
0.607557801 
0.5934529746 
0.5983641596 
0.6071871899 
0.6184945429 
0.6217513405 
0.6340292977 
0.6053455365 
0.6252513083 
0.6264408979 
0.6033534534 
0.6108704767 
0.5835399214 
0.5920124271 
0.6025751439 
0.6017431335 
0.6080226792 
0.609611899 
0.6076506137 
0.6264763113 
0.6247673708 
0.5728149888 
0.5756231763 
0.5781405048 
0.5920946165 
0.5965582401 
0.5801434148 
0.5864178594 
0.595479747 
0.5981249232 
0.5911158635 
0.604579343 
0.6029450312 
0.6125368151 
0.6339888541 
0.5996289848 
0.6126178126 
0.6194038962 
0.6142649397 
0.6117611517 
0.600844511 
0.6115598242 
0.6103322519 
0.6018206753 
0.6171766942 
0.615411097 
0.6105638555 
0.6221188033 
0.6219672617 
0.6199745689 
0.6101337354 
0.6164939111 
0.6147781961 
0.6191041331 
0.6050850057 
0.626311677 
0.6277393305 
0.576519838 
0.6104838243 
0.613661841 
0.6113721682 
0.5825902682 
0.6098693718 
0.5923816117 
0.6230717048 
0.6109422582 
0.6062420141 
0.5402075123 
0.602949614 
0.6171571963 
0.6150667131 
0.60156613 
0.6131871579 
0.590811069 
0.6211228721 
0.5832264087 
0.614170488 
0.595197157 
0.6082888407 
0.6178486209 
0.6084771803 
0.6129231855 
0.6234474157 
0.5726441287 
0.6150502421 
0.6192060179 
0.5929838803 
0.6039950085 
0.6137411424 
0.6137480954 
0.6097800443 
0.5586401065 
0.6109780987 
0.6291626141 
0.6141988984 
0.5972591033 
0.6161512505 
0.6179605589 
0.6092945316 
0.6251589137 
0.6124509498 
0.6047414596 
0.6077663206 
0.6294390401 
0.6263097134 
0.6168602312 
0.6106369814 
0.6204949217 
0.6232624659 
0.6093877442 
0.6268993328 
0.6169644509 
0.6152512652 
0.6240641172 
0.619918666 
0.5766825218 
0.6235542828 
0.6015089483 
0.6062277367 
0.6110408509 
0.6128271122 
0.6203272156 
0.610411231 
0.6026153002 
0.6206308196 
0.6062366518 
0.5859859466 
0.6029714103 
0.6123636843 
0.6028169329 
0.6130812798 
0.5909811226 
0.5877353677 
0.5940678717 
0.591113618 
0.5889231078 
0.5825985031 
0.5933547774 
0.5726852441 
0.5819379353 
0.5666101119 
0.5879556534 
0.6102824098 
0.6111522082 
0.6092976951 
0.5848778665 
0.5975197758 
0.58920818 
0.6082917657 
0.5512246779 
0.6089824999 
0.6051849541 
0.6176750613 
0.5971127903 
0.6117954127 
0.6122738823 
0.6152300285 
0.5983644674 
0.609777224 
0.6186877382 
0.6244213017 
0.5967814348 
0.6054029489 
0.6073212097 
0.5945623441 
0.6055161698 
0.6039975323 
0.619144172 
0.6003712984 
0.614762069 
0.6096012296 
0.6018179704 
0.6147190653 
0.6195622955 
0.6213350614 
0.6240231485 
0.5986809065 
0.5745180477 
0.6097299256 
0.6085661683 
0.6117344965 
0.6094471764 
0.610180063 
0.5380680192 
0.5860804005 
0.5436635095 
0.5637091945 
0.5388358159 
0.5641102575 
0.5375522925 
0.5374204982 
0.5664918275 
0.5915466864 
0.5868940964 
0.5876733114 
0.5984755595 
0.597402853 
0.607600225 
0.5594604467 
0.552265216 
0.5589361143 
0.5980539851 
0.597958566 
0.6021589928 
0.6095027436 
0.6029520676 
0.6101403072 
0.561289404 
0.562540161 
0.5647638119 
0.5605199879 
0.6213795315 
0.6077352855 
0.6000137635 
0.5882475997 
0.5461051563 
0.6016170394 
0.5973686302 
0.6022926727 
0.6249991351 
0.6092117405 
0.608819271 
0.6085333685 
0.6223972258 
0.6259620064 
0.5982729146 
0.6096564321 
0.5805902605 
0.5946629523 
0.5899724382 
0.6209171393 
0.5918218335 
0.6193094379 
0.6110809651 
0.6035187476 
0.6037790799 
0.6041651955 
0.6106481917 
0.6010191733 
0.6122119244 
0.6203958473 
0.6051491246 
0.6121922814 
0.6263490625 
0.6331572431 
0.6350544688 
0.6240750099 
0.5376252588 
0.6193533503 
0.6286646199 
0.5926453455 
0.6195645824 
0.6300228211 
0.601842445 
0.6209849577 
0.6319858466 
0.6233158911 
0.6204238141 
0.6097522844 
0.6193637261 
0.6060112935 
0.6139286978 
0.5712440535 
0.5742037991 
0.5829628625 
0.6075007916 
0.5689539255 
0.5541491903 
0.6222296524 
0.6036112867 
0.6248411326 
0.6075616955 
0.6015815579 
0.6199315837 
0.6170754109 
0.6158116907 
0.6268493565 
0.6107567432 
0.6322081732 
0.6276074037 
0.6262927165 
0.6125887084 
0.612116598 
0.611054514 
0.6223395906 
0.5699035569 
0.5636732155 
0.605658118 
0.5711702227 
0.5720222463 
0.5694587716 
0.5732363645 
0.623406171 
0.5754750402 
0.5855828028 
0.6163674958 
0.6260585693 
0.5996483179 
0.6148334884 
0.6410563868 
0.5837767849 
0.6027483018 
0.5795013775 
0.5825247349 
0.5885747551 
0.5710483715 
0.5514313351 
0.556929095 
0.5773520222 
0.5646304892 
0.5734885619 
0.5782731786 
0.5706149361 
0.5748175616 
0.6182280269 
0.6079793473 
0.6019846279 
0.6098796052 
0.6030069545 
0.5922248099 
0.5453622745 
0.58041394 
0.5745441296 
0.6189848223 
0.5943624412 
0.604768206 
0.612506417 
0.5946776094 
0.6043983669 
0.608630366 
0.5902574186 
0.6105004941 
0.613337076 
0.5996447761 
0.6176007446 
0.6004872725 
0.6127971338 
0.6204844128 
0.6080217897 
0.6022712267 
0.6200470998 
0.5996721414 
0.6099748883 
0.5762549436 
0.5700384027 
0.5719276109 
0.5709862247 
0.5657391219 
0.5593450245 
0.5642227634 
0.5562454426 
0.5525654776 
0.5667648736 
0.5934324208 
0.6020756911 
0.5934211356 
0.6090354182 
0.6050623834 
0.6094568904 
0.6240746912 
0.5997469274 
0.6202875195 
0.6017843155 
0.6013530632 
0.6106983861 
0.6207100105 
0.5874946184 
0.6100693883 
0.6215797203 
0.6011451688 
0.6013522257 
0.6075403385 
0.6101910623 
0.5729407753 
0.615452437 
0.6069049268 
0.6142764836 
0.6099326189 
0.6166188375 
0.6159681709 
0.6161986226 
0.6229000049 
0.5779726005 
0.6294254245 
0.6185039242 
0.6231799632 
0.6101826924 
0.6076776452 
0.6022818653 
0.6143533162 
0.6164813251 
0.6105433998 
0.6224529479 
0.6052734104 
0.5942884532 
0.5846163138 
0.5742057273 
0.5945262083 
0.5985521944 
0.5587285897 
0.5807775097 
0.5920371357 
0.6224555626 
0.630639534 
0.6248607231 
0.611397638 
0.6328665599 
0.6294688982 
0.6197025242 
0.6058047197 
0.6269906864 
0.6177985206 
0.6094341186 
0.6073382013 
0.6139819872 
0.6224724952 
0.6073570863 
0.621693962 
0.5722793068 
0.6162504001 
0.5916039747 
0.5914374927 
0.5642633611 
0.5702085691 
0.592888789 
0.5826686612 
0.5901280915 
0.5751848656 
0.6189312131 
0.6082836765 
0.5828763722 
0.6078535582 
0.6044162333 
0.6129434081 
0.5908631919 
0.5726389054 
0.6073014256 
0.5962334642 
0.5767686724 
0.5830289675 
0.5817037025 
0.5971522373 
0.5892032613 
0.5743127077 
0.5675657439 
0.5686169048 
0.5905636194 
0.6204630621 
0.6024320947 
0.5948662128 
0.6133820656 
0.6060113565 
0.6177095858 
0.6125255217 
0.5987640686 
0.6034534876 
0.5969053422 
0.6001792529 