# vtk DataFile Version 3.0
MOAB 4.99 (Alpha)
ASCII
DATASET UNSTRUCTURED_GRID
POINTS 941 double
5 1 1
5 -1 1
5 -0.6 1
5 -0.2 1
5 0.2 1
5 0.6 1
3 -1 -1
3.25 -1 -0.75
3.5 -1 -0.5
3.75 -1 -0.25
4 -1 4.440892099e-16
4.25 -1 0.25
4.5 -1 0.5
4.75 -1 0.75
3 1 -1
3 0.6 -1
3 0.2 -1
3 -0.2 -1
3 -0.6 -1
4.75 1 0.75
4.5 1 0.5
4.25 1 0.25
4 1 4.440892099e-16
3.75 1 -0.25
3.5 1 -0.5
3.25 1 -0.75
3.210534347 0.3456156476 -0.7894656535
3.237579789 0.02323972097 -0.7624202105
3.260077995 -0.3369398435 -0.7399220054
4.66128468 0.6420733885 0.6612846795
4.387425658 0.6478035315 0.3874256579
4.127422783 0.6605799727 0.1274227835
3.874334095 0.6591986653 -0.1256659048
3.615032709 0.6473723453 -0.3849672912
3.34148886 0.6428667433 -0.6585111399
4.794943029 -0.3328127876 0.7949430294
4.776893838 0.004760438475 0.776893838
4.79476624 0.3398623493 0.7947662396
3.352897705 -0.6767119424 -0.6471022951
3.612851485 -0.685585578 -0.3871485146
3.86653946 -0.6683737223 -0.1334605404
4.125233072 -0.6591947061 0.1252330723
4.387426995 -0.6404608724 0.3874269946
4.661396082 -0.634846041 0.6613960816
3.470461255 0.2667555942 -0.5295387448
3.471725451 -0.1303904056 -0.5282745489
4.53529653 0.2465105609 0.5352965303
4.251750301 0.3149278043 0.2517503015
3.999672335 0.3263318987 -0.0003276647424
3.748686449 0.3210592429 -0.2513135508
4.535235548 -0.2376028235 0.535235548
3.482398389 -0.4309857217 -0.5176016111
3.708720333 -0.317234075 -0.2912796668
3.990796674 -0.3252886488 -0.009203326325
4.249586538 -0.3093708721 0.2495865382
3.654619287 0.02856387022 -0.3453807126
4.338265664 0.003206383659 0.3382656643
4.11726241 0.002072593402 0.1172624102
3.869959581 0.005917480259 -0.1300404185
10 1 1
10 -1 1
10 0.6 1
10 0.2 1
10 -0.2 1
10 -0.6 1
10 -1 -1
10 -1 0.6
10 -1 0.2
10 -1 -0.2
10 -1 -0.6
10 1 -1
10 -0.6 -1
10 -0.2 -1
10 0.2 -1
10 0.6 -1
10 1 -0.6
10 1 -0.2
10 1 0.2
10 1 0.6
10 0.4052531952 0.6719438381
10 -0.001326739737 0.6398182875
10 -0.4084466782 0.6730790076
10 -0.671668119 0.4109975243
10 -0.6409559612 0.002665308352
10 -0.6741562537 -0.4067531861
10 -0.4126332896 -0.6703225438
10 -0.005823851008 -0.6385848783
10 0.4033337139 -0.671818987
10 0.6657077798 -0.40925766
10 0.6331965555 -5.201324309e-05
10 0.6677757402 0.4090861353
10 0.7346057871 0.7362059947
10 -0.7360229594 0.7368153064
10 -0.7373579087 -0.735415146
10 0.7338082987 -0.7362153294
10 0.2405618544 0.2463031768
10 -0.2488935914 0.2473010883
10 -0.2507661259 -0.2443109294
10 0.2398134703 -0.2452073142
10 -0.004821098151 0.001021505389
9.631578947 1 -1
9.263157895 1 -1
8.894736842 1 -1
8.526315789 1 -1
8.157894737 1 -1
7.789473684 1 -1
7.421052632 1 -1
7.052631579 1 -1
6.684210526 1 -1
6.315789474 1 -1
5.947368421 1 -1
5.578947368 1 -1
5.210526316 1 -1
4.842105263 1 -1
4.473684211 1 -1
4.105263158 1 -1
3.736842105 1 -1
3.368421053 1 -1
3.368421053 -1 -1
3.736842105 -1 -1
4.105263158 -1 -1
4.473684211 -1 -1
4.842105263 -1 -1
5.210526316 -1 -1
5.578947368 -1 -1
5.947368421 -1 -1
6.315789474 -1 -1
6.684210526 -1 -1
7.052631579 -1 -1
7.421052632 -1 -1
7.789473684 -1 -1
8.157894737 -1 -1
8.526315789 -1 -1
8.894736842 -1 -1
9.263157895 -1 -1
9.631578947 -1 -1
9.503571304 0.6394043447 -1
9.100312866 0.644927294 -1
8.714983355 0.6625544396 -1
8.341662596 0.6705850245 -1
7.971680862 0.6741187011 -1
7.602861727 0.6757371277 -1
7.234476715 0.6764303752 -1
6.866212438 0.6766752715 -1
6.497941654 0.6767190089 -1
6.129624376 0.6766782118 -1
5.761252876 0.6765997553 -1
5.392823336 0.6764998692 -1
5.024320915 0.6763842324 -1
4.655715009 0.6762468231 -1
4.287177674 0.6745658985 -1
3.91461422 0.6672888523 -1
3.516663057 0.6492571414 -1
9.7000353 -0.3339302879 -1
9.674144814 0.002504537714 -1
9.699978131 0.3376363908 -1
3.514894956 -0.6449163458 -1
3.912179142 -0.657849801 -1
4.286721556 -0.6612752796 -1
4.656454315 -0.6623331582 -1
5.025396377 -0.6628736722 -1
5.394026083 -0.6631268317 -1
5.762489784 -0.6632064594 -1
6.130866209 -0.6631976983 -1
6.499188524 -0.6631543728 -1
6.86746406 -0.6631203889 -1
7.235700957 -0.6631716821 -1
7.603949174 -0.6634653839 -1
7.972342425 -0.6642360643 -1
8.342186698 -0.6634273202 -1
8.715450327 -0.6570251926 -1
9.099831232 -0.6403481372 -1
9.502603854 -0.6355206693 -1
3.342479699 0.2975788678 -1
3.248181565 0.00176425446 -1
3.340851077 -0.2926452568 -1
9.318645045 0.2442530876 -1
8.898903291 0.3168846047 -1
8.525373965 0.3351958236 -1
8.155348817 0.3416738286 -1
7.786197747 0.3447095176 -1
7.417668526 0.3462149004 -1
7.04942251 0.3468621718 -1
6.681236945 0.3470656434 -1
6.313010465 0.3470667265 -1
5.944707859 0.3469878379 -1
5.576309141 0.3468920224 -1
5.207774561 0.3468255216 -1
4.839039189 0.3468200567 -1
4.471636864 0.345260507 -1
4.102306366 0.3399899304 -1
3.725047232 0.3279584995 -1
9.318038971 -0.2382415933 -1
3.724034175 -0.317293208 -1
4.100380698 -0.3228331462 -1
4.47104319 -0.323631171 -1
4.839782257 -0.3237914646 -1
5.208566603 -0.3240584051 -1
5.5771416 -0.3241704809 -1
5.945552922 -0.3241629025 -1
6.313853726 -0.3241050171 -1
6.682068418 -0.324068723 -1
7.050220202 -0.3241699542 -1
7.418385864 -0.3246310563 -1
7.786747026 -0.3257767649 -1
8.156146797 -0.3264964819 -1
8.526188598 -0.3235217298 -1
8.898888285 -0.3079585867 -1
9.027625988 0.004282151413 -1
8.702637871 0.005631534321 -1
8.339239551 0.007366020341 -1
7.970807176 0.009211197689 -1
7.60213317 0.0107499787 -1
7.23379334 0.01168661146 -1
6.865593355 0.01208170244 -1
6.497395756 0.01217775096 -1
6.129135557 0.01214810063 -1
5.760778178 0.01209634592 -1
5.392278264 0.01209709327 -1
5.023575455 0.01220325834 -1
4.655674363 0.01163953648 -1
4.286850042 0.009913080958 -1
3.915463298 0.007053088735 -1
3.549342841 0.004069374272 -1
9.642857143 -1 1
9.285714286 -1 1
8.928571429 -1 1
8.571428571 -1 1
8.214285714 -1 1
7.857142857 -1 1
7.5 -1 1
7.142857143 -1 1
6.785714286 -1 1
6.428571429 -1 1
6.071428571 -1 1
5.714285714 -1 1
5.357142857 -1 1
5.116450996 -1 0.6970162925
3.54332125 -1 -0.779838856
3.863822909 -1 -0.6485718889
4.286484801 -1 -0.6733846675
4.658068784 -1 -0.6819957804
5.022031899 -1 -0.6792191559
5.391027104 -1 -0.6767471857
5.762339914 -1 -0.6772683657
6.132590528 -1 -0.6778009251
6.501672438 -1 -0.6779104015
6.870123747 -1 -0.6778544754
7.238359032 -1 -0.6777416152
7.606547991 -1 -0.6776012716
7.974767141 -1 -0.6774520123
8.343123549 -1 -0.6773461395
8.710938737 -1 -0.6769720868
9.081053923 -1 -0.6732941026
9.476316231 -1 -0.6557949319
9.705284688 -1 0.3494337396
9.678371329 -1 0.03802302095
9.634118103 -1 -0.3082373086
9.516065721 -1 0.6443734957
9.123909486 -1 0.6469478462
8.747461596 -1 0.6572973955
8.382589515 -1 0.6622306798
8.021331429 -1 0.6640856656
7.661259973 -1 0.6646850227
7.30156031 -1 0.6648289276
6.94196028 -1 0.6648203922
6.58234943 -1 0.664753909
6.219466188 -1 0.6635816508
5.853275117 -1 0.66445183
5.485054958 -1 0.6733606294
4.124286759 -1 -0.3357676017
4.351854539 -1 -0.07071373582
4.597445524 -1 0.1618126189
4.862673385 -1 0.4113737757
4.483948365 -1 -0.3759660577
4.830198077 -1 -0.3674331902
5.198064287 -1 -0.3452836569
5.580989135 -1 -0.3453945578
5.956842446 -1 -0.347254739
6.327919171 -1 -0.347953209
6.696443621 -1 -0.3479815674
7.063816126 -1 -0.3478593371
7.430846925 -1 -0.3477114705
7.797882021 -1 -0.3476396613
8.16525776 -1 -0.3478909103
8.531203754 -1 -0.3489702363
8.89717499 -1 -0.3520241139
9.261762399 -1 -0.3512981737
9.347185719 -1 0.2669012357
8.929485784 -1 0.3052308617
8.553810625 -1 0.3186330706
8.187912786 -1 0.3232673627
7.8242382 -1 0.3247744372
7.461450791 -1 0.3251756456
7.098930397 -1 0.3252010328
6.736326686 -1 0.3251023748
6.371200255 -1 0.3243229853
6.002368837 -1 0.3252586589
5.627770734 -1 0.3323591074
4.968433353 -1 0.01109089513
5.243174429 -1 0.3532256716
4.646375971 -1 -0.1282418939
5.400528094 -1 -0.001255018014
5.787897457 -1 -0.008633563846
6.162313532 -1 -0.01159572521
6.531305545 -1 -0.01220653239
6.897636944 -1 -0.0121176999
7.262832764 -1 -0.01203162701
7.627860612 -1 -0.01209704121
7.993284999 -1 -0.01268835685
8.358601455 -1 -0.0148528636
8.726013169 -1 -0.02184944615
9.092955134 -1 -0.03872747108
9.402878537 -1 -0.07866773937
5.357142857 1 1
5.714285714 1 1
6.071428571 1 1
6.428571429 1 1
6.785714286 1 1
7.142857143 1 1
7.5 1 1
7.857142857 1 1
8.214285714 1 1
8.571428571 1 1
8.928571429 1 1
9.285714286 1 1
9.642857143 1 1
9.517255987 -0.6418925102 1
9.125889358 -0.6492818316 1
8.752312553 -0.6682682011 1
8.390507378 -0.6769501083 1
8.031951083 -0.6807315919 1
7.674492569 -0.6823889531 1
7.317408716 -0.6830047059 1
6.960360131 -0.6831063848 1
6.60315386 -0.6829483532 1
6.242111814 -0.6816269869 1
5.871971295 -0.67747148 1
5.486999864 -0.666953029 1
9.70788834 0.3326338686 1
9.682452218 -0.004815132549 1
9.707812956 -0.3397804687 1
5.48758107 0.6570617965 1
5.872208273 0.6610765828 1
6.241370276 0.6606194631 1
6.603458155 0.6604712739 1
6.962142737 0.6606217315 1
7.31958576 0.6608042462 1
7.676644574 0.6611538082 1
8.033767633 0.6620007496 1
8.392079632 0.66104457 1
8.753535469 0.6545256629 1
9.12606891 0.6383122897 1
9.516934497 0.6343465293 1
5.311077384 -0.3665023152 1
5.399805096 -0.008215081421 1
5.31054606 0.354944263 1
9.337132222 -0.2488907198 1
8.92980367 -0.3240190495 1
8.567761038 -0.3435413148 1
8.209223093 -0.3505557314 1
7.851508088 -0.3537649774 1
7.494316128 -0.3552654693 1
7.137243922 -0.3558291215 1
6.779853535 -0.3559172044 1
6.418085342 -0.3546639501 1
6.045608747 -0.3511896801 1
5.66000966 -0.3479115015 1
9.336947966 0.2347176755 1
5.660803245 0.3278246548 1
6.045268702 0.3211946064 1
6.417165217 0.3187055658 1
6.779830698 0.3179593864 1
7.138352844 0.3180244164 1
7.495667205 0.3185157867 1
7.852818467 0.3197328264 1
8.210722571 0.3204318397 1
8.569135272 0.3176415205 1
8.930349181 0.3028777996 1
9.054850528 -0.0101555034 1
8.739763724 -0.01263171593 1
8.387622703 -0.01504616716 1
8.030641467 -0.01716246711 1
7.673333001 -0.01877812214 1
7.316131934 -0.01973137148 1
6.958507822 -0.0201044444 1
6.597639163 -0.01945744668 1
6.228060457 -0.01709138801 1
5.839925984 -0.01256473164 1
5.125025696 1 0.7031192142
[...]
CELL_DATA 6437
SCALARS TALLY_TAG double 1
LOOKUP_TABLE default
0 
0 
0 
0 
0 
0 
0 
0 
0 
0 
0 
0 
0 
0 
0 
0 
0 
0 
0 
0 
0 
0 
0 
0 
0 
0 
0 
0 
0 
0 
0 
0 
0 
0 
0 
0 
0 
0 
0 
0 
0 
0 
0 
0 
0 
0 
0 
0 
0 
0 
0 
0 
0 
0 
0 
0 
0 
0 
0 
0 
0 
0 
0 
0 
0 
0 
0 
0 
0 
0 
0 
0 
0 
0 
0 
0 
0 
0 
0 
0 
0 
0 
0 
0 
0 
0 
0 
0 
0 
0 
0 
0 
0 
0 
0 
0 
0 
0 
0 
0 
0 
0 
0 
0 
0 
0 
0 
0 
0 
0 
0 
0 
0 
0 
0 
0 
0 
0 
0 
0 
0 
0 
0 
0 
0 
0 
0 
0 
0 
0 
0 
0 
0 
0 
0 
0 
0 
0 
0 
0 
0 
0 
0 
0 
0 
0 
0 
0 
0 
0 
0 
0 
0 
0 
0 
0 
0 
0 
0 
0 
0 
0 
0 
0 
0 
0 
0 
0 
0 
0 
0 
0 
0 
0 
0 
0 
0 
0 
0 
0 
0 
0 
0 
0 
0 
0 
0 
0 
0 
0 
0 
0 
0 
0 
0 
0 
0 
0 
0 
0 
0 
0 
0 
0 
0 
0 
0 
0 
0 
0 
0 
0 
0 
0 
0 
0 
0 
0 
0 
0 
0 
0 
0 
0 
0 
0 
0 
0 
0 
0 
0 
0 
0 
0 
0 
0 
0 
0 
0 
0 
0 
0 
0 
0 
0 
0 
0 
0 
0 
0 
0 
0 
0 
0 
0 
0 
0 
0 
0 
0 
0 
0 
0 
0 
0 
0 
0 
0 
0 
0 
0 
0 
0 
0 
0 
0 
0 
0 
0 
0 
0 
0 
0 
0 
0 
0 
0 
0 
0 
0 
0 
0 
0 
0 
0 
0 
0 
0 
0 
0 
0 
0 
0 
0 
0 
0 
0 
0 
0 
0 
0 
0 
0 
0 
0 
0 
0 
0 
0 
0 
0 
0 
0 
0 
0 
0 
0 
0 
0 
0 
0 
0 
0 
0 
0 
0 
0 
0 
0 
0 
0 
0 
0 
0 
0 
0 
0 
0 
0 
0 
0 
0 
0 
0 
0 
0 
0 
0 
0 
0 
0 
0 
0 
0 
0 
0 
0 
0 
0 
0 
0 
0 
0 
0 
0 
0 
0 
0 
0 
0 
0 
0 
0 
0 
0 
0 
0 
0 
0 
0 
0 
0 
0 
0 
0 
0 
0 
0 
0 
0 
0 
0 
0 
0 
0 
0 
0 
0 
0 
0 
0 
0 
0 
0 
0 
0 
0 
0 
0 
0 
0 
0 
0 
0 
0 
0 
0 
0 
0 
0 
0 
0 
0 
0 
0 
0 
0 
0 
0 
0 
0 
0 
0 
0 
0 
0 
0 
0 
0 
0 
0 
0 
0 
0 
0 
0 
0 
0 
0 
0 
0 
0 
0 
0 
0 
0 
0 
0 
0 
0 
0 
0 
0 
0 
0 
0 
0 
0 
0 
0 
0 
0 
0 
0 
0 
0 
0 
0 
0 
0 
0 
0 
0 
0 
0 
0 
0 
0 
0 
0 
0 
0 
0 
0 
0 
0 
0 
0 
0 
0 
0 
0 
0 
0 
0 
0 
0 
0 
0 
0 
0 
0 
0 
0 
0 
0 
0 
0 
0 
0 
0 
0 
0 
0 
0 
0 
0 
0 
0 
0 
0 
0 
0 
0 
0 
0 
0 
0 
0 
0 
0 
0 
0 
0 
0 
0 
0 
0 
0 
0 
0 
0 
0 
0 
0 
0 
0 
0 
0 
0 
0 
0 
0 
0 
0 
0 
0 
0 
0 
0 
0 
0 
0 
0 
0 
0 
0 
0 
0 
0 
0 
0 
0 
0 
0 
0 
0 
0 
0 
0 
0 
0 
0 
0 
0 
0 
0 
0 
0 
0 
0 
0 
0 
0 
0 
0 
0 
0 
0 
0 
0 
0 
0 
0 
0 
0 
0 
0 
0 
0 
0 
0 
0 
0 
0 
0 
0 
0 
0 
0 
0 
0 
0 
0 
0 
0 
0 
0 
0 
0 
0 
0 
0 
0 
0 
0 
0 
0 
0 
0 
0 
0 
0 
0 
0 
0 
0 
0 
0 
0 
0 
0 
0 
0 
0 
0 
0 
0 
0 
0 
0 
0 
0 
0 
0 
0 
0 
0 
0 
0 
0 
0 
0 
0 
0 
0 
0 
0 
0 
0 
0 
0 
0 
0 
0 
0 
0 
0 
0 
0 
0 
0 
0 
0 
0 
0 
0 
0 
0 
0 
0 
0 
0 
0 
0 
0 
0 
0 
0 
0 
0 
0 
0 
0 
0 
0 
0 
0 
0 
0 
0 
0 
0 
0 
0 
0 
0 
0 
0 
0 
0 
0 
0 
0 
0 
0 
0 
0 
0 
0 
0 
0 
0 
0 
0 
0 
0 
0 
0 
0 
0 
0 
0 
0 
0 
0 
0 
0 
0 
0 
0 
0 
0 
0 
0 
0 
0 
0 
0 
0 
0 
0 
0 
0 
0 
0 
0 
0 
0 
0 
0 
0 
0 
0 
0 
0 
0 
0 
0 
0 
0 
0 
0 
0 
0 
0 
0 
0 
0 
0 
0 
0 
0 
0 
0 
0 
0 
0 
0 
0 
0 
0 
0 
0 
0 
0 
0 
0 
0 
0 
0 
0 
0 
0 
0 
0 
0 
0 
0 
0 
0 
0 
0 
0 
0 
0 
0 
0 
0 
0 
0 
0 
0 
0 
0 
0 
0 
0 
0 
0 
0 
0 
0 
0 
0 
0 
0 
0 
0 
0 
0 
0 
0 
0 
0 
0 
0 
0 
0 
0 
0 
0 
0 
0 
0 
0 
0 
0 
0 
0 
0 
0 
0 
0 
0 
0 
0 
0 
0 
0 
0 
0 
0 
0 
0 
0 
0 
0 
0 
0 
0 
0 
0 
0 
0 
0 
0 
0 
0 
0 
0 
0 
0 
0 
0 
0 
0 
0 
0 
0 
0 
0 
0 
0 
0 
0 
0 
0 
0 
0 
0 
0 
0 
0 
0 
0 
0 
0 
0 
0 
0 
0 
0 
0 
0 
0 
0 
0 
0 
0 
0 
0 
0 
0 
0 
0 
0 
0 
0 
0 
0 
0 
0 
0 
0 
0 
0 
0 
0 
0 
0 
0 
0 
0 
0 
0 
0 
0 
0 
0 
0 
0 
0 
0 
0 
0 
0 
0 
0 
0 
0 
0 
0 
0 
0 
0 
0 
0 
0 
0 
0 
0 
0 
0 
0 
0 
0 
0 
0 
0 
0 
0 
0 
0 
0 
0 
0 
0 
0 
0 
0 
0 
0 
0 
0 
0 
0 
0 
0 
0 
0 
0 
0 
0 
0 
0 
0 
0 
0 
0 
0 
0 
0 
0 
0 
0 
0 
0 
0 
0 
0 
0 
0 
0 
0 
0 
0 
0 
0 
0 
0 
0 
0 
0 
0 
0 
0 
0 
0 
0 
0 
0 
0 
0 
0 
0 
0 
0 
0 
0 
0 
0 
0 
0 
0 
0 
0 
0 
0 
0 
0 
0 
0 
0 
0 
0 
0 
0 
0 
0 
0 
0 
0 
0 
0 
0 
0 
0 
0 
0 
0 
0 
0 
0 
0 
0 
0 
0 
0 
0 
0 
0 
0 
0 
0 
0 
0 
0 
0 
0 
0 
0 
0 
0 
0 
0 
0 
0 
0 
0 
0 
0 
0 
0 
0 
0 
0 
0 
0 
0 
0 
0 
0 
0 
0 
0 
0 
0 
0 
0 
0 
0 
0 
0 
0 
0 
0 
0 
0 
0 
0 
0 
0 
0 
0 
0 
0 
0 
0 
0 
0 
0 
0 
0 
0 
0 
0 
0 
0 
0 
0 
0 
0 
0 
0 
0 
0 
0 
0 
0 
0 
0 
0 
0 
0 
0 
0 
0 
0 
0 
0 
0 
0 
0 
0 
0 
0 
0 
0 
0 
0 
0 
0 
0 
0 
0 
0 
0 
0 
0 
0 
0 
0 
0 
0 
0 
0 
0 
0 
0 
0 
0 
0 
0 
0 
0 
0 
0 
0 
0 
0 
0 
0 
0 
0 
0 
0 
0 
0 
0 
0 
0 
0 
0 
0 
0 
0 
0 
0 
0 
0 
0 
0 
0 
0 
0 
0 
0 
0 
0 
0 
0 
0 
0 
0 
0 
0 
0 
0 
0 
0 
0 
0 
0 
0 
0 
0 
0 
0 
0 
0 
0 
0 
0 
0 
0 
0 
0 
0 
0 
0 
0 
0 
0 
0 
0 
0 
0 
0 
0 
0 
0 
0 
0 
0 
0 
0 
0 
0 
0 
0 
0 
0 
0 
0 
0 
0 
0 
0 
0 
0 
0 
0 
0 
0 
0 
0 
0 
0 
0 
0 
0 
0 
0 
0 
0 
0 
0 
0 
0 
0 
0 
0 
0 
0 
0 
0 
0 
0 
0 
0 
0 
0 
0 
0 
0 
0 
0 
0 
0 
0 
0 
0 
0 
0 
0 
0 
0 
0 
0 
0 
0 
0 
0 
0 
0 
0 
0 
0 
0 
0 
0 
0 
0 
0 
0 
0 
0 
0 
0 
0 
0 
0 
0 
0 
0 
0 
0 
0 
0 
0 
0 
0 
0 
0 
0 
0 
0 
0 
0 
0 
0 
0 
0 
0 
0 
0 
0 
0 
0 
0 
0 
0 
0 
0 
0 
0 
0 
0 
0 
0 
0 
0 
0 
0 
0 
0 
0 
0 
0 
0 
0 
0 
0 
0 
0 
0 
0 
0 
0 
0 
0 
0 
0 
0 
0 
0 
0 
0 
0 
0 
0 
0 
0 
0 
0 
0 
0 
0 
0 
0 
0 
0 
0 
0 
0 
0 
0 
0 
0 
0 
0 
0 
0 
0 
0 
0 
0 
0 
0 
0 
0 
0 
0 
0 
0 
0 
0 
0 
0 
0 
0 
0 
0 
0 
0 
0 
0 
0 
0 
0 
0 
0 
0 
0 
0 
0 
0 
0 
0 
0 
0 
0 
0 
0 
0 
0 
0 
0 
0 
0 
0 
0 
0 
0 
0 
0 
0 
0 
0 
0 
0 
0 
0 
0 
0 
0 
0 
0 
0 
0 
0 
0 
0 
0 
0 
0 
0 
0 
0 
0 
0 
0 
0 
0 
0 
0 
0 
0 
0 
0 
0 
0 
0 
0 
0 
0 
0 
0 
0 
0 
0 
0 
0 
0 
0 
0 
0 
0 
0 
0 
0 
0 
0 
0 
0 
0 
0 
0 
0 
0 
0 
0 
0 
0 
0 
0 
0 
0 
0 
0 
0 
0 
0 
0 
0 
0 
0 
0 
0 
0 
0 
0 
0 
0 
0 
0 
0 
0 
0 
0 
0 
0 
0 
0 
0 
0 
0 
0 
0 
0 
0 
0 
0 
0 
0 
0 
0 
0 
0 
0 
0 
0 
0 
0 
0 
0 
0 
0 
0 
0 
0 
0 
0 
0 
0 
0 
0 
0 
0 
0 
0 
0 
0 
0 
0 
0 
0 
0 
0 
0 
0 
0 
0 
0 
0 
0 
0 
0 
0 
0 
0 
0 
0 
0 
0 
0 
0 
0 
0 
0 
0 
0 
0 
0 
0 
0 
0 
0 
0 
0 
0 
0 
0 
0 
0 
0 
0 
0 
0 
0 
0 
0 
0 
0 
0 
0 
0 
0 
0 
0 
0 
0 
0 
0 
0 
0 
0 
0 
0 
0 
0 
0 
0 
0 
0 
0 
0 
0 
0 
0 
0 
0 
0 
0 
0 
0 
0 
0 
0 
0 
0 
0 
0 
0 
0 
0 
0 
0 
0 
0 
0 
0 
0 
0 
0 
0 
0 
0 
0 
0 
0 
0 
0 
0 
0 
0 
0 
0 
0 
0 
0 
0 
0 
0 
0 
0 
0 
0 
0 
0 
0 
0 
0 
0 
0 
0 
0 
0 
0 
0 
0 
0 
0 
0 
0 
0 
0 
0 
0 
0 
0 
0 
0 
0 
0 
0 
0 
0 
0 
0 
0 
0 
0 
0 
0 
0 
0 
0 
0 
0 
0 
0 
0 
0 
0 
0 
0 
0 
0 
0 
0 
0 
0 
0 
0 
0 
0 
0 
0 
0 
0 
0 
0 
0 
0 
0 
0 
0 
0 
0 
0 
0 
0 
0 
0 
0 
0 
0 
0 
0 
0 
0 
0 
0 
0 
0 
0 
0 
0 
0 
0 
0 
0 
0 
0 
0 
0 
0 
0 
0 
0 
0 
0 
0 
0 
0 
0 
0 
0 
0 
0 
0 
0 
0 
0 
0 
0 
0 
0 
0 
0 
0 
0 
0 
0 
0 
0 
0 
0 
0 
0 
0 
0 
0 
0 
0 
0 
0 
0 
0 
0 
0 
0 
0 
0 
0 
0 
0 
0 
0 
0 
0 
0 
0 
0 
0 
0 
0 
0 
0 
0 
0 
0 
0 
0 
0 
0 
0 
0 
0 
0 
0 
0 
0 
0 
0 
0 
0 
0 
0 
0 
0 
0 
0 
0 
0 
0 
0 
0 
0 
0 
0 
0 
0 
0 
0 
0 
0 
0 
0 
0 
0 
0 
0 
0 
0 
0 
0 
0 
0 
0 
0 
0 
0 
0 
0 
0 
0 
0 
0 
0 
0 
0 
0 
0 
0 
0 
0 
0 
0 
0 
0 
0 
0 
0 
0 
0 
0 
0 
0 
0 
0 
0 
0 
0 
0 
0 
0 
0 
0 
0 
0 
0 
0 
0 
0 
0 
0 
0 
0 
0 
0 
0 
0 
0 
0 
0 
0 
0 
0 
0 
0 
0 
0 
0 
0 
0 
0 
0 
0 
0 
0 
0 
0 
0 
0 
0 
0 
0 
0 
0 
0 
0 
0 
0 
0 
0 
0 
0 
0 
0 
0 
0 
0 
0 
0 
0 
0 
0 
0 
0 
0 
0 
0 
0 
0 
0 
0 
0 
0 
0 
0 
0 
0 
0 
0 
0 
0 
0 
0 
0 
0 
0 
0 
0 
0 
0 
0 
0 
0 
0 
0 
0 
0 
0 
0 
0 
0 
0 
0 
0 
0 
0 
0 
0 
0 
0 
0 
0 
0 
0 
0 
0 
0 
0 
0 
0 
0 
0 
0 
0 
0 
0 
0 
0 
0 
0 
0 
0 
0 
0 
0 
0 
0 
0 
0 
0 
0 
0 
0 
0 
0 
0 
0 
0 
0 
0 
0 
0 
0 
0 
0 
0 
0 
0 
0 
0 
0 
0 
0 
0 
0 
0 
0 
0 
0 
0 
0 
0 
0 
0 
0 
0 
0 
0 
0 
0 
0 
0 
0 
0 
0 
0 
0 
0 
0 
0 
0 
0 
0 
0 
0 
0 
0 
0 
0 
0 
0 
0 
0 
0 
0 
0 
0 
0 
0 
0 
0 
0 
0 
0 
0 
0 
0 
0 
0 
0 
0 
0 
0 
0 
0 
0 
0 
0.3453825952 
0.3465035979 
0.3609404188 
0.3540006489 
0.3466622006 
0.4756261899 
0.3570306417 
0.336212246 
0.3915887741 
0.399206531 
0.3921568903 
0.5374017671 
0.4058370319 
0.4132474481 
0.4117507214 
0.4401200336 
0.5455381531 
0.4678305326 
0.4428555464 
0.448937597 
0.446526095 
0.4122691333 
0.4516560391 
0.4684017832 
0.4694937478 
0.455930629 
0.4587448877 
0.4558517001 
0.4591612725 
0.4532076155 
0.3753970045 
0.3893530806 
0.393077998 
0.3814683139 
0.5436126665 
0.4038875303 
0.4134288903 
0.3736486663 
0.3991195625 
0.4267619652 
0.4353010736 
0.4608639701 
0.4482938985 
0.4340635181 
0.429180013 
0.5609197717 
0.4439053136 
0.4242638712 
0.4216080436 
0.4302784798 
0.4071038749 
0.4058677609 
0.3460300169 
0.3509801084 
0.3646752122 
0.3447027583 
0.3487109553 
0.4063957894 
0.4013299844 
0.4311992241 
0.4042346697 
0.4110612817 
0.4237596543 
0.424277211 
0.4061176334 
0.417529588 
0.4155182435 
0.5241878459 
0.437648269 
0.3333157822 
0.4600116725 
0.3271782898 
0.3687833783 
0.367267485 
0.3332176866 
0.3517875814 
0.3583257169 
0.3556713423 
0.4662614312 
0.480023385 
0.4998686026 
0.4878827348 
0.4737256329 
0.3162858989 
0.3223642904 
0.3234561513 
0.3237518609 
0.3167630001 
0.3288234991 
0.3328645672 
0.3245839609 
0.538789383 
0.3517548294 
0.3373460955 
0.3506106254 
0.3435753722 
0.3344737501 
0.3618743707 
0.3611496028 
0.3238839369 
0.3698770184 
0.3933583751 
0.5434581135 
0.3886078599 
0.3845459568 
0.399622643 
0.3271308418 
0.5064540816 
0.4871252773 
0.5075337119 
0.4878037918 
0.3930893428 
0.3372902507 
0.3941791157 
0.4087759228 
0.4027325394 
0.4073883748 
0.3562287095 
0.346799011 
0.3671686343 
0.4765005852 
0.3630674082 
0.4611954363 
0.4721763577 
0.323398372 
0.3108330979 
0.3253354563 
0.3249461254 
0.3125159915 
0.3204802599 
0.3198503198 
0.3162407797 
0.3462771575 
0.3668188341 
0.3270815157 
0.3686596804 
0.3581957503 
0.5051309726 
0.5313380685 
0.5052507453 
0.5231738712 
0.5347387222 
0.5278726364 
0.3739645435 
0.3819013988 
0.3822499667 
0.380771768 
0.376234814 
0.3417596777 
0.3999116775 
0.4751787115 
0.4784895032 
0.4904215386 
0.4822447264 
0.4613455862 
0.4695436647 
0.5051781718 
0.5268516908 
0.5386374617 
0.5433654053 
0.5266081982 
0.3628794546 
0.5450481796 
0.5183103275 
0.5174352565 
0.5264080662 
0.5355070605 
0.5868828744 
0.5127293017 
0.5092479981 
0.5037345746 
0.4752595405 
0.4996853735 
0.4818665584 
0.4681429802 
0.4927726591 
0.4799134263 
0.5079875086 
0.5163422303 
0.5098457173 
0.5148617476 
0.4001456304 
0.3745757125 
0.3838001516 
0.3870859264 
0.3991803808 
0.366621465 
0.3759385858 
0.377753945 
0.3933934259 
0.4050119024 
0.379395657 
0.3861291502 
0.390270598 
0.4056118808 
0.4860184696 
0.4882543994 
0.4841838949 
0.4566299607 
0.5012235963 
0.4810984751 
0.4661618106 
0.4530478789 
0.545111243 
0.4472964272 
0.4582509322 
0.467091995 
0.4471189147 
0.4413270798 
0.4670702998 
0.4639598171 
0.4516588008 
0.3554120214 
0.3664022805 
0.3699060082 
0.3568136247 
0.3385526616 
0.3330454053 
0.4802470334 
0.3600736507 
0.34455466 
0.3572067107 
0.380035159 
0.3505295375 
0.3662317186 
0.5337655975 
0.5288801049 
0.5434094611 
0.536509612 
0.5356156434 
0.362738606 
0.3357874498 
0.3131650216 
0.3074575405 
0.3253498816 
0.3255315708 
0.3196686987 
0.3091887601 
0.3144479083 
0.3197221122 
0.3445798231 
0.3316639718 
0.448662488 
0.4638369835 
0.4461599499 
0.5530064641 
0.4565366562 
0.4596605317 
0.4722821379 
0.473487178 
0.4366203185 
0.4255083331 
0.4164519139 
0.4214124781 
0.4354195803 
0.441083757 
0.4381465631 
0.4532022441 
0.4357405282 
0.4077780443 
0.3934745333 
0.3947619294 
0.3830194693 
0.3882865795 
0.3944066421 
0.3288338585 
0.332905692 
0.3275385981 
0.3383886531 
0.3511720105 
0.3195833199 
0.336095968 
0.3206777341 
0.3303997363 
0.5496293392 
0.5419906353 
0.5273802086 
0.5214008662 
0.5576868769 
0.5473613098 
0.5394464538 
0.5325510153 
0.542069355 
0.5392662774 
0.5420349531 
0.4819452255 
0.4915891653 
0.4906561181 
0.4751743081 
0.4820755822 
0.4985018951 
0.5006723646 
0.4826500567 
0.4702150094 
0.4201068835 
0.4173770524 
0.4054674239 
0.4271125872 
0.4332232699 
0.4146223325 
0.5800720245 
0.4862305322 
0.4989777962 
0.4962135306 
0.500235898 
0.507096425 
0.3173672693 
0.3729890688 
0.3901626915 
0.3484738079 
0.4458895884 
0.557008768 
0.3036597612 
0.30825123 
0.3042699358 
0.3139977629 
0.3168668278 
0.5072853301 
0.4743078432 
0.4925770915 
0.4895057447 
0.4060620623 
0.4807987895 
0.4985991395 
0.4959942808 
0.5468856063 
0.4713162647 
0.4728101446 
0.4986618086 
0.5046037216 
0.5365289797 
0.5020237188 
0.5168024348 
0.5155896097 
0.5211827991 
0.3841878252 
0.3808867762 
0.3869344801 
0.4082794079 
0.4021757958 
0.3783477518 
0.3448680816 
0.3841463019 
0.546971253 
0.5414421158 
0.3197855049 
0.330287913 
0.5567213062 
0.3360263812 
0.3442051893 
0.3290609415 
0.3319013432 
0.3369059771 
0.3177676864 
0.4228133562 
0.4240259757 
0.401636695 
0.4214683908 
0.3819837265 
0.3896130867 
0.3182459105 
0.4001343807 
0.3836169801 
0.4143690305 
0.6022587247 
0.4003639871 
0.4124094938 
0.3809929138 
0.3416654725 
0.3432078898 
0.3448564671 
0.3447828465 
0.3398788924 
0.3325344984 
0.3405940011 
0.3389624825 
0.3603158408 
0.3605218288 
0.3493051941 
0.3596615577 
0.371910503 
0.3161219887 
0.3288812127 
0.3212304277 
0.3876590105 
0.3530869489 
0.4725347927 
0.4479837024 
0.4724602816 
0.4633797559 
0.470175025 
0.4570966835 
0.435170024 
0.4273723516 
0.4164379184 
0.4361492655 
0.4370623408 
0.5163113485 
0.5235266954 
0.5238745655 
0.5374962095 
0.5135442716 
0.511958053 
0.5138561284 
0.4475780328 
0.4409864149 
0.4355450249 
0.4506626007 
0.3195377898 
0.4436754633 
0.3092549953 
0.5301725957 
0.5305043608 
0.3896679143 
0.5333047423 
0.3752153825 
0.3850987253 
0.3914681292 
0.3793282962 
0.4014021362 
0.4020110661 
0.3950343633 
0.3703821362 
0.3644696349 
0.4870798696 
0.4997360319 
0.4861710707 
0.482702674 
0.4939658702 
0.5064105256 
0.5454269101 
0.5212729194 
0.5111695823 
0.5143977359 
0.5032942743 
0.5126280521 
0.5217458728 
0.5012804286 
0.5396129808 
0.5466150101 
0.5328961244 
0.553684883 
0.5471949461 
0.5311511035 
0.3830774213 
0.4093811024 
0.4089061574 
0.3765847856 
0.515231887 
0.4037702886 
0.380300091 
0.3846656808 
0.4012236978 
0.3721631657 
0.5817398613 
0.3959303955 
0.3684857718 
0.3893963034 
0.3690284323 
0.45598567 
0.4574545325 
0.4532688035 
0.4561161933 
0.4608233586 
0.4794139719 
0.4570379114 
0.4462620638 
0.4241931437 
0.4168993208 
0.4311276387 
0.44730793 
0.4362648941 
0.4229010392 
0.4545796877 
0.484226064 
0.507919731 
0.4975846794 
0.5020151618 
0.4605323904 
0.4952378074 
0.5005073133 
0.4909753497 
0.3162047465 
0.3146597979 
0.3170084784 
0.316435398 
0.5518367734 
0.3129248991 
0.3316454337 
0.3236624024 
0.2983709627 
0.3279958486 
0.4729825639 
0.3104396983 
0.5344134945 
0.3103331141 
0.4593430638 
0.4506101266 
0.4537342832 
0.4564474711 
0.451270532 
0.4450253882 
0.4555781094 
0.46588537 
0.4652869975 
0.4614265643 
0.463399529 
0.3532903296 
0.3790840563 
0.3620815979 
0.3756466747 
0.3437592718 
0.3475000902 
0.38183016 
0.3786140236 
0.3634383823 
0.4995613838 
0.5330211404 
0.5374411761 
0.5896761863 
0.4432222899 
0.3030740884 
0.4307444242 
0.4446997431 
0.4434783902 
0.3646703201 
0.4389500522 
0.3650418755 
0.3770072363 
0.376250835 
0.3629300482 
0.3832771118 
0.4889931419 
0.5098908097 
0.490436872 
0.4957307595 
0.4807247721 
0.4761965672 
0.4707781975 
0.4547982553 
0.4583183674 
0.4672228633 
0.3228420244 
0.3422621294 
0.318844651 
0.3266058817 
0.3424017609 
0.3410697741 
0.3325320147 
0.332942345 
0.3340867964 
0.3347619499 
0.375325481 
0.4479459044 
0.3697369812 
0.3688162753 
0.3605418842 
0.3676336965 
0.3690040542 
0.3834093989 
0.3735237857 
0.5026244811 
0.3586374421 
0.3656704927 
0.3807821953 
0.3850222239 
0.3744262813 
0.387410256 
0.5227161752 
0.5278819935 
0.4942901659 
0.4705328444 
0.3115865931 
0.5217905226 
0.5235197829 
0.5241299641 
0.5104652735 
0.5183025507 
0.3244180166 
0.311134159 
0.3105975711 
0.3245799187 
0.5020294195 
0.3083935021 
0.3370933062 
0.3375445186 
0.3163693156 
0.3556924803 
0.3274961968 
0.3304951656 
0.3194585831 
0.3393990855 
0.3467214315 
0.3372499546 
0.3095208347 
0.3083597227 
0.3058556686 
0.4798939672 
0.3235403299 
0.3286991553 
0.3089423504 
0.3197466105 
0.3122722881 
0.3428013903 
0.3301151811 
0.3408241494 
0.3881971448 
0.323327372 
0.3805728858 
0.3391462935 
0.4134396205 
0.4047402014 
0.3910904468 
0.378864551 
0.5123333504 
0.5094693707 
0.5066752452 
0.5665305788 
0.3650820465 
0.5413942489 
0.5522720541 
0.555339489 
0.5727281031 
0.4234083435 
0.4360187994 
0.4206753383 
0.3356779322 
0.4189668701 
0.4131977569 
0.4086008382 
0.4235167782 
0.3117294866 
0.3138389735 
0.3683509411 
0.3401627251 
0.3328170395 
0.3746293316 
0.3558982807 
0.3774689376 
0.3522791544 
0.3551617031 
0.337315568 
0.3644987046 
0.4550820135 
0.3460635961 
0.3535321389 
0.3319409299 
0.3405401711 
0.4681379504 
0.4746504949 
0.4748914276 
0.441090182 
0.4572183922 
0.4666546174 
0.4766642182 
0.2974592332 
0.4976022022 
0.4640417825 
0.469829494 
0.3912811325 
0.3979280392 
0.3894974212 
0.3970995332 
0.3505768787 
0.4171178859 
0.4143573333 
0.3957530804 
0.4298512435 
0.4225152403 
0.4140731797 
0.4168359095 
0.3231895689 
0.4475321758 
0.4431279254 
0.4628502108 
0.4682658718 
0.4671420927 
0.3591313625 
0.3408283929 
0.3307935058 
0.3411145858 
0.3501521353 
0.3465797692 
0.3469410599 
0.3321668187 
0.3167740503 
0.3518223772 
0.4308237578 
0.4411615686 
0.5823489954 
0.4281060901 
0.4259602479 
0.4070510986 
0.4128602908 
0.4194920181 
0.4152034715 
0.4098615885 
0.436785191 
0.4558980453 
0.4467251866 
0.3010239427 
0.4270110204 
0.3084488978 
0.4334415309 
0.4372346452 
0.4063285588 
0.4252964684 
0.4564215091 
0.4240502606 
0.4261689927 
0.4013487751 
0.4047108421 
0.4077681596 
0.4057909071 
0.4021889646 
0.4254001045 
0.4347406516 
0.409801542 
0.3794372757 
0.3363198442 
0.3688397214 
0.3190743088 
0.3482616505 
0.3295388361 
0.3446970675 
0.3431813299 
0.3513235228 
0.3165420816 
0.3370777295 
0.4860470122 
0.4919989556 
0.4717411121 
0.4873450671 
0.4952630792 
0.4847346118 
0.5299232652 
0.5383036533 
0.5536950984 
0.4914141975 
0.5373100088 
0.5347775661 
0.5096901593 
0.5555278781 
0.548424193 
0.4707739845 
0.4752155434 
0.4793119991 
0.4897182829 
0.4983204777 
0.488424937 
0.4860084958 
0.413511291 
0.4349918845 
0.4415823407 
0.4255418184 
0.4138793526 
0.4025724555 
0.4197966588 
0.5753484645 
0.4337433411 
0.4422142495 
0.4853978934 
0.4494807611 
0.5428190287 
0.4784095261 
0.4465577568 
0.4522062841 
0.4475952697 
0.4398984568 
0.3812787533 
0.357610083 
0.3637202319 
0.388246076 
0.3603835358 
0.3255710876 
0.322663725 
0.3298992868 
0.3306534062 
0.3146543521 
0.3218246257 
0.32351763 
0.2969446436 
0.30430111 
0.3289354155 
0.3198372905 
0.4250387152 
0.4131622072 
0.4180149126 
0.4777535201 
0.4313765796 
0.5863665029 
0.4869784939 
0.48429982 
0.4116429295 
0.4218142414 
0.4191649944 
0.5245155177 
0.5207858352 
0.5195984413 
0.5232931882 
0.5202450213 
0.5460169897 
0.3216427167 
0.3117173789 
0.3139762359 
0.3207397198 
0.3298481203 
0.3334457344 
0.3134005776 
0.3586936844 
0.3391505812 
0.4026165514 
0.3924689206 
0.3674961405 
0.3739480069 
0.3755332373 
0.3460463157 
0.3196274173 
0.3127403201 
0.312034567 
0.3050565431 
0.310833288 
0.3121625732 
0.3032466894 
0.3071074629 
0.5380171204 
0.32665236 
0.3221727397 
0.3041496756 
0.3231719379 
0.4289247551 
0.4336760462 
0.4344917964 
0.4151076888 
0.3945026295 
0.4135834365 
0.4056784781 
0.4093262942 
0.4181402255 
0.4150912567 
0.4194817183 
0.4015846242 
0.4142535832 
0.4045561642 
0.4181402224 
0.3357965089 
0.3346102418 
0.3238528607 
0.3183864185 
0.5237248505 
0.4848091095 
0.4687407908 
0.4813684603 
0.4960259281 
0.487212014 
0.5278434641 
0.3487010308 
0.3299597279 
0.3375884055 
0.3266861536 
0.3385043639 
0.3527304469 
0.318909076 
0.3387049549 
0.3070680152 
0.3699478524 
0.4127998721 
0.4044628203 
0.4148386317 
0.4028715337 
0.3897647437 
0.3968195738 
0.3940354544 
0.3645585511 
0.4057877441 
0.3813176957 
0.3802672118 
0.3878027728 
0.388681315 
0.4208863134 
0.4053640933 
0.4253714026 
0.420435632 
0.4242730723 
0.5606295549 
0.5005557855 
0.5191867798 
0.5272928111 
0.5159117564 
0.5109926744 
0.5358228488 
0.4852031815 
0.5243196532 
0.5319948218 
0.3816468849 
0.3961870764 
0.402463167 
0.3830319371 
0.3894176333 
0.3899421025 
0.3980311686 
0.3974400093 
0.3720860536 
0.3702769478 
0.4062686044 
0.4096095793 
0.5427910937 
0.53995772 
0.541361935 
0.5097092755 
0.532757258 
0.5485806336 
0.5397253335 
0.5368918408 
0.5498670993 
0.5479904275 
0.5516712841 
0.5318486712 
0.534623322 
0.384773143 
0.3897553649 
0.4004157112 
0.373356906 
0.3879582069 
0.4012888986 
0.3636557778 
0.3545887588 
0.3575331535 
0.3748199598 
0.3829022345 
0.3846052474 
0.4271995065 
0.3911596602 
0.4941944591 
0.4858996277 