# vtk DataFile Version 3.0
MOAB 4.6.0
ASCII
DATASET UNSTRUCTURED_GRID
POINTS 1225 double
0 -0.5 0.5
0 0.5 0.5
0 -0.3333333333 0.5
0 -0.1666666667 0.5
0 0 0.5
0 0.1666666667 0.5
0 0.3333333333 0.5
0 0.5 -0.5
0 0.5 0.3333333333
0 0.5 0.1666666667
0 0.5 0
0 0.5 -0.1666666667
0 0.5 -0.3333333333
0 -0.5 -0.5
0 0.3333333333 -0.5
0 0.1666666667 -0.5
0 0 -0.5
0 -0.1666666667 -0.5
0 -0.3333333333 -0.5
0 -0.5 -0.3333333333
0 -0.5 -0.1666666667
0 -0.5 0
0 -0.5 0.1666666667
0 -0.5 0.3333333333
0 -0.3333333333 0.3333333333
0 -0.1666666667 0.3333333333
0 -6.938893904e-18 0.3333333333
0 0.1666666667 0.3333333333
0 0.3333333333 0.3333333333
0 -0.3333333333 0.1666666667
0 -0.1666666667 0.1666666667
0 -1.387778781e-17 0.1666666667
0 0.1666666667 0.1666666667
0 0.3333333333 0.1666666667
0 -0.3333333333 0
0 -0.1666666667 0
0 0 0
0 0.1666666667 0
0 0.3333333333 0
0 -0.3333333333 -0.1666666667
0 -0.1666666667 -0.1666666667
0 0 -0.1666666667
0 0.1666666667 -0.1666666667
0 0.3333333333 -0.1666666667
0 -0.3333333333 -0.3333333333
0 -0.1666666667 -0.3333333333
0 0 -0.3333333333
0 0.1666666667 -0.3333333333
0 0.3333333333 -0.3333333333
2.5 -0.5 -0.5
0.2083333333 -0.5 -0.5
0.4166666667 -0.5 -0.5
0.625 -0.5 -0.5
0.8333333333 -0.5 -0.5
1.041666667 -0.5 -0.5
1.25 -0.5 -0.5
1.458333333 -0.5 -0.5
1.666666667 -0.5 -0.5
1.875 -0.5 -0.5
2.083333333 -0.5 -0.5
2.291666667 -0.5 -0.5
2.5 -0.5 0.5
2.5 -0.5 0.3333333333
2.5 -0.5 0.1666666667
2.5 -0.5 0
2.5 -0.5 -0.1666666667
2.5 -0.5 -0.3333333333
2.291666667 -0.5 0.5
2.083333333 -0.5 0.5
1.875 -0.5 0.5
1.666666667 -0.5 0.5
1.458333333 -0.5 0.5
1.25 -0.5 0.5
1.041666667 -0.5 0.5
0.8333333333 -0.5 0.5
0.625 -0.5 0.5
0.4166666667 -0.5 0.5
0.2083333333 -0.5 0.5
0.2083333333 -0.5 -0.3333333333
0.4166666667 -0.5 -0.3333333333
0.625 -0.5 -0.3333333333
0.8333333333 -0.5 -0.3333333333
1.041666667 -0.5 -0.3333333333
1.25 -0.5 -0.3333333333
1.458333333 -0.5 -0.3333333333
1.666666667 -0.5 -0.3333333333
1.875 -0.5 -0.3333333333
2.083333333 -0.5 -0.3333333333
2.291666667 -0.5 -0.3333333333
0.2083333333 -0.5 -0.1666666667
0.4166666667 -0.5 -0.1666666667
0.625 -0.5 -0.1666666667
0.8333333333 -0.5 -0.1666666667
1.041666667 -0.5 -0.1666666667
1.25 -0.5 -0.1666666667
1.458333333 -0.5 -0.1666666667
1.666666667 -0.5 -0.1666666667
1.875 -0.5 -0.1666666667
2.083333333 -0.5 -0.1666666667
2.291666667 -0.5 -0.1666666667
0.2083333333 -0.5 0
0.4166666667 -0.5 0
0.625 -0.5 0
0.8333333333 -0.5 0
1.041666667 -0.5 0
1.25 -0.5 0
1.458333333 -0.5 0
1.666666667 -0.5 0
1.875 -0.5 0
2.083333333 -0.5 0
2.291666667 -0.5 0
0.2083333333 -0.5 0.1666666667
0.4166666667 -0.5 0.1666666667
0.625 -0.5 0.1666666667
0.8333333333 -0.5 0.1666666667
1.041666667 -0.5 0.1666666667
1.25 -0.5 0.1666666667
1.458333333 -0.5 0.1666666667
1.666666667 -0.5 0.1666666667
1.875 -0.5 0.1666666667
2.083333333 -0.5 0.1666666667
2.291666667 -0.5 0.1666666667
0.2083333333 -0.5 0.3333333333
0.4166666667 -0.5 0.3333333333
0.625 -0.5 0.3333333333
0.8333333333 -0.5 0.3333333333
1.041666667 -0.5 0.3333333333
1.25 -0.5 0.3333333333
1.458333333 -0.5 0.3333333333
1.666666667 -0.5 0.3333333333
1.875 -0.5 0.3333333333
2.083333333 -0.5 0.3333333333
2.291666667 -0.5 0.3333333333
2.5 0.5 -0.5
2.291666667 0.5 -0.5
2.083333333 0.5 -0.5
1.875 0.5 -0.5
1.666666667 0.5 -0.5
1.458333333 0.5 -0.5
1.25 0.5 -0.5
1.041666667 0.5 -0.5
0.8333333333 0.5 -0.5
0.625 0.5 -0.5
0.4166666667 0.5 -0.5
0.2083333333 0.5 -0.5
2.5 -0.3333333333 -0.5
2.5 -0.1666666667 -0.5
2.5 0 -0.5
2.5 0.1666666667 -0.5
2.5 0.3333333333 -0.5
0.2083333333 0.3333333333 -0.5
0.4166666667 0.3333333333 -0.5
0.625 0.3333333333 -0.5
0.8333333333 0.3333333333 -0.5
1.041666667 0.3333333333 -0.5
1.25 0.3333333333 -0.5
1.458333333 0.3333333333 -0.5
1.666666667 0.3333333333 -0.5
1.875 0.3333333333 -0.5
2.083333333 0.3333333333 -0.5
2.291666667 0.3333333333 -0.5
0.2083333333 0.1666666667 -0.5
0.4166666667 0.1666666667 -0.5
0.625 0.1666666667 -0.5
0.8333333333 0.1666666667 -0.5
1.041666667 0.1666666667 -0.5
1.25 0.1666666667 -0.5
1.458333333 0.1666666667 -0.5
1.666666667 0.1666666667 -0.5
1.875 0.1666666667 -0.5
2.083333333 0.1666666667 -0.5
2.291666667 0.1666666667 -0.5
0.2083333333 0 -0.5
0.4166666667 0 -0.5
0.625 0 -0.5
0.8333333333 0 -0.5
1.041666667 0 -0.5
1.25 0 -0.5
1.458333333 0 -0.5
1.666666667 0 -0.5
1.875 0 -0.5
2.083333333 0 -0.5
2.291666667 0 -0.5
0.2083333333 -0.1666666667 -0.5
0.4166666667 -0.1666666667 -0.5
0.625 -0.1666666667 -0.5
0.8333333333 -0.1666666667 -0.5
1.041666667 -0.1666666667 -0.5
1.25 -0.1666666667 -0.5
1.458333333 -0.1666666667 -0.5
1.666666667 -0.1666666667 -0.5
1.875 -0.1666666667 -0.5
2.083333333 -0.1666666667 -0.5
2.291666667 -0.1666666667 -0.5
0.2083333333 -0.3333333333 -0.5
0.4166666667 -0.3333333333 -0.5
0.625 -0.3333333333 -0.5
0.8333333333 -0.3333333333 -0.5
1.041666667 -0.3333333333 -0.5
1.25 -0.3333333333 -0.5
1.458333333 -0.3333333333 -0.5
1.666666667 -0.3333333333 -0.5
1.875 -0.3333333333 -0.5
2.083333333 -0.3333333333 -0.5
2.291666667 -0.3333333333 -0.5
2.5 0.5 0.5
2.5 0.5 -0.3333333333
2.5 0.5 -0.1666666667
2.5 0.5 0
2.5 0.5 0.1666666667
2.5 0.5 0.3333333333
2.5 0.3333333333 0.5
2.5 0.1666666667 0.5
2.5 0 0.5
2.5 -0.1666666667 0.5
2.5 -0.3333333333 0.5
2.5 0.3333333333 -0.3333333333
2.5 0.3333333333 -0.1666666667
2.5 0.3333333333 -6.938893904e-18
2.5 0.3333333333 0.1666666667
2.5 0.3333333333 0.3333333333
2.5 0.1666666667 -0.3333333333
2.5 0.1666666667 -0.1666666667
2.5 0.1666666667 -1.387778781e-17
2.5 0.1666666667 0.1666666667
2.5 0.1666666667 0.3333333333
2.5 0 -0.3333333333
2.5 0 -0.1666666667
2.5 0 0
2.5 0 0.1666666667
2.5 0 0.3333333333
2.5 -0.1666666667 -0.3333333333
2.5 -0.1666666667 -0.1666666667
2.5 -0.1666666667 0
2.5 -0.1666666667 0.1666666667
2.5 -0.1666666667 0.3333333333
2.5 -0.3333333333 -0.3333333333
2.5 -0.3333333333 -0.1666666667
2.5 -0.3333333333 0
2.5 -0.3333333333 0.1666666667
2.5 -0.3333333333 0.3333333333
0.2083333333 0.5 0.5
0.4166666667 0.5 0.5
0.625 0.5 0.5
0.8333333333 0.5 0.5
1.041666667 0.5 0.5
1.25 0.5 0.5
1.458333333 0.5 0.5
1.666666667 0.5 0.5
1.875 0.5 0.5
2.083333333 0.5 0.5
2.291666667 0.5 0.5
0.2083333333 -0.3333333333 0.5
0.4166666667 -0.3333333333 0.5
0.625 -0.3333333333 0.5
0.8333333333 -0.3333333333 0.5
1.041666667 -0.3333333333 0.5
1.25 -0.3333333333 0.5
1.458333333 -0.3333333333 0.5
1.666666667 -0.3333333333 0.5
1.875 -0.3333333333 0.5
2.083333333 -0.3333333333 0.5
2.291666667 -0.3333333333 0.5
0.2083333333 -0.1666666667 0.5
0.4166666667 -0.1666666667 0.5
0.625 -0.1666666667 0.5
0.8333333333 -0.1666666667 0.5
1.041666667 -0.1666666667 0.5
1.25 -0.1666666667 0.5
1.458333333 -0.1666666667 0.5
1.666666667 -0.1666666667 0.5
1.875 -0.1666666667 0.5
2.083333333 -0.1666666667 0.5
2.291666667 -0.1666666667 0.5
0.2083333333 0 0.5
0.4166666667 0 0.5
0.625 0 0.5
0.8333333333 0 0.5
1.041666667 0 0.5
1.25 0 0.5
1.458333333 0 0.5
1.666666667 0 0.5
1.875 0 0.5
2.083333333 0 0.5
2.291666667 0 0.5
0.2083333333 0.1666666667 0.5
0.4166666667 0.1666666667 0.5
0.625 0.1666666667 0.5
0.8333333333 0.1666666667 0.5
1.041666667 0.1666666667 0.5
1.25 0.1666666667 0.5
1.458333333 0.1666666667 0.5
1.666666667 0.1666666667 0.5
1.875 0.1666666667 0.5
2.083333333 0.1666666667 0.5
2.291666667 0.1666666667 0.5
0.2083333333 0.3333333333 0.5
0.4166666667 0.3333333333 0.5
0.625 0.3333333333 0.5
0.8333333333 0.3333333333 0.5
1.041666667 0.3333333333 0.5
1.25 0.3333333333 0.5
1.458333333 0.3333333333 0.5
1.666666667 0.3333333333 0.5
1.875 0.3333333333 0.5
2.083333333 0.3333333333 0.5
2.291666667 0.3333333333 0.5
0.2083333333 0.5 0.3333333333
0.4166666667 0.5 0.3333333333
0.625 0.5 0.3333333333
0.8333333333 0.5 0.3333333333
1.041666667 0.5 0.3333333333
1.25 0.5 0.3333333333
1.458333333 0.5 0.3333333333
1.666666667 0.5 0.3333333333
1.875 0.5 0.3333333333
2.083333333 0.5 0.3333333333
2.291666667 0.5 0.3333333333
0.2083333333 0.5 0.1666666667
0.4166666667 0.5 0.1666666667
0.625 0.5 0.1666666667
0.8333333333 0.5 0.1666666667
1.041666667 0.5 0.1666666667
1.25 0.5 0.1666666667
1.458333333 0.5 0.1666666667
1.666666667 0.5 0.1666666667
1.875 0.5 0.1666666667
2.083333333 0.5 0.1666666667
2.291666667 0.5 0.1666666667
0.2083333333 0.5 0
0.4166666667 0.5 0
0.625 0.5 0
0.8333333333 0.5 0
1.041666667 0.5 0
1.25 0.5 0
1.458333333 0.5 0
1.666666667 0.5 0
1.875 0.5 0
2.083333333 0.5 0
2.291666667 0.5 0
0.2083333333 0.5 -0.1666666667
0.4166666667 0.5 -0.1666666667
0.625 0.5 -0.1666666667
0.8333333333 0.5 -0.1666666667
1.041666667 0.5 -0.1666666667
1.25 0.5 -0.1666666667
1.458333333 0.5 -0.1666666667
1.666666667 0.5 -0.1666666667
1.875 0.5 -0.1666666667
2.083333333 0.5 -0.1666666667
2.291666667 0.5 -0.1666666667
0.2083333333 0.5 -0.3333333333
0.4166666667 0.5 -0.3333333333
0.625 0.5 -0.3333333333
0.8333333333 0.5 -0.3333333333
1.041666667 0.5 -0.3333333333
1.25 0.5 -0.3333333333
1.458333333 0.5 -0.3333333333
1.666666667 0.5 -0.3333333333
1.875 0.5 -0.3333333333
2.083333333 0.5 -0.3333333333
2.291666667 0.5 -0.3333333333
0.2083333333 -0.3333333333 -0.3333333333
0.4166666667 -0.3333333333 -0.3333333333
0.625 -0.3333333333 -0.3333333333
0.8333333333 -0.3333333333 -0.3333333333
1.041666667 -0.3333333333 -0.3333333333
1.25 -0.3333333333 -0.3333333333
1.458333333 -0.3333333333 -0.3333333333
1.666666667 -0.3333333333 -0.3333333333
1.875 -0.3333333333 -0.3333333333
2.083333333 -0.3333333333 -0.3333333333
2.291666667 -0.3333333333 -0.3333333333
0.2083333333 -0.1666666667 -0.3333333333
0.4166666667 -0.1666666667 -0.3333333333
0.625 -0.1666666667 -0.3333333333
0.8333333333 -0.1666666667 -0.3333333333
1.041666667 -0.1666666667 -0.3333333333
1.25 -0.1666666667 -0.3333333333
1.458333333 -0.1666666667 -0.3333333333
1.666666667 -0.1666666667 -0.3333333333
1.875 -0.1666666667 -0.3333333333
2.083333333 -0.1666666667 -0.3333333333
2.291666667 -0.1666666667 -0.3333333333
0.2083333333 0 -0.3333333333
0.4166666667 1.387778781e-17 -0.3333333333
0.625 -1.387778781e-17 -0.3333333333
0.8333333333 -1.387778781e-17 -0.3333333333
1.041666667 5.551115123e-17 -0.3333333333
1.25 1.387778781e-17 -0.3333333333
[...]
POINT_DATA 1225
SCALARS KDE_TALLY_TAG double 1
LOOKUP_TABLE default
0.006091265271 
0.006479111633 
0.007047019723 
0.007152685481 
0.00561451182 
0.006176652605 
0.005784597573 
0.006553099826 
0.006033958033 
0.005495596117 
0.006412441462 
0.006754243024 
0.006726361898 
0.005872314103 
0.006114961099 
0.006328752645 
0.006568402634 
0.006545639922 
0.006165765861 
0.005847833889 
0.005664760993 
0.00600589098 
0.005973581238 
0.006678344649 
0.006041366928 
0.006094746306 
0.005980763346 
0.00678539526 
0.006092118982 
0.005805486981 
0.006183113449 
0.006805854719 
0.006475335999 
0.005737621758 
0.005683461652 
0.006126844669 
0.006197128878 
0.006187961346 
0.006431103486 
0.006646472181 
0.006324840681 
0.006007734053 
0.006404010157 
0.006415123405 
0.006500443383 
0.006477529611 
0.006918783321 
0.005618410934 
0.006745020823 
0.0011774259 
0.006035963594 
0.005029838308 
0.00486236614 
0.003884493738 
0.003713951188 
0.002962862695 
0.002714468732 
0.002417296578 
0.002218709272 
0.002202195605 
0.002171643168 
0.001418517574 
0.001290113563 
0.001254020694 
0.001028210332 
0.001316263161 
0.001256325344 
0.002077303372 
0.002128769193 
0.002432685236 
0.002774507082 
0.002462526318 
0.003173807729 
0.003546334935 
0.003597468228 
0.00396925763 
0.005256011624 
0.005677428765 
0.005485988829 
0.00453776562 
0.004335430552 
0.00374291057 
0.003349331165 
0.002887698469 
0.002812968886 
0.002283130639 
0.002051985399 
0.002234497657 
0.001944555215 
0.005819582925 
0.00489002994 
0.004545092025 
0.003569674083 
0.002811224303 
0.002848818154 
0.002620898936 
0.00245071947 
0.001841355829 
0.002117926814 
0.002511141259 
0.005637343412 
0.005432094276 
0.004017771654 
0.00386322304 
0.003821698164 
0.002967297325 
0.002913459757 
0.002363397542 
0.001812577544 
0.002370859815 
0.002027176911 
0.005043859588 
0.004971322412 
0.004280106741 
0.003833109593 
0.003279915667 
0.00301003542 
0.002498370684 
0.002216754732 
0.002371436827 
0.001559259333 
0.002008875703 
0.006378330704 
0.005797663757 
0.004586067812 
0.004092683358 
0.003724041084 
0.003698556332 
0.002888085016 
0.002763660319 
0.002379342971 
0.002089749952 
0.00231139418 
0.001353128172 
0.002176148765 
0.002255349202 
0.002085883302 
0.002821577804 
0.002532864968 
0.002735530428 
0.003589395035 
0.00372675517 
0.003909517091 
0.004823856626 
0.005589594196 
0.001300282196 
0.001154503362 
0.001460790226 
0.001237291638 
0.001630134381 
0.005617836001 
0.004748382238 
0.004650485064 
0.003890466881 
0.003428657995 
0.002907101631 
0.002590727099 
0.002687883868 
0.002271910539 
0.001703631841 
0.001973347738 
0.005559050946 
0.005480141715 
0.004202231691 
0.00353457024 
0.004120446717 
0.002897571044 
0.002854939754 
0.002473738772 
0.001882823974 
0.002276483931 
0.002132660134 
0.005658077078 
0.004992031367 
0.004744200222 
0.004151716764 
0.00327046828 
0.003218915912 
0.002933813037 
0.002815628512 
0.002072413211 
0.002503695486 
0.00216756931 
0.006546613429 
0.0049899603 
0.004654081061 
0.004013259669 
0.002982104895 
0.00266329794 
0.002895380651 
0.002715847589 
0.002587065696 
0.00231274978 
0.002002508395 
0.005371425213 
0.005130667896 
0.003882990679 
0.004358156186 
0.003238565669 
0.00307017719 
0.002878234012 
0.002858223695 
0.002398057479 
0.002314872457 
0.001944795547 
0.001282929668 
0.001517596167 
0.001402951401 
0.001077354361 
0.00114262732 
0.001093121998 
0.001123879895 
0.001277457772 
0.001178212351 
0.001278839513 
0.001337059481 
0.001170835457 
0.001302061224 
0.001216311413 
0.0009738029572 
0.00139957278 
0.001284377236 
0.001175916155 
0.001568804989 
0.001280006101 
0.001163800983 
0.00120014668 
0.001321998175 
0.001115165302 
0.0009889169857 
0.001272726864 
0.001314563743 
0.00128955272 
0.00107189479 
0.001269416142 
0.001232268678 
0.001320370746 
0.001574770242 
0.001211985209 
0.001533180735 
0.001301242587 
0.006049622074 
0.004949950326 
0.004462454894 
0.003730141871 
0.003729259476 
0.003227611722 
0.002316520399 
0.002159783732 
0.002504577156 
0.002224806206 
0.002648271201 
0.005835358498 
0.004937358326 
0.004698391554 
0.003986877712 
0.00389832446 
0.003099770948 
0.003019549861 
0.002634731882 
0.002299352907 
0.002134481347 
0.001865417996 
0.005780982934 
0.004985995434 
0.003984551879 
0.004008287632 
0.003041767705 
0.002881485592 
0.002355553827 
0.002446111461 
0.002441357324 
0.002192199951 
0.0023003699 
0.005711453829 
0.004830671243 
0.004521974513 
0.004245209547 
0.003316828945 
0.003241489966 
0.002699336489 
0.002952176928 
0.001982352109 
0.002119181752 
0.002500857101 
0.006093890564 
0.005015152671 
0.004465355745 
0.00372858009 
0.003108142566 
0.002689190214 
0.002768498534 
0.003197012036 
0.002293922602 
0.002200458655 
0.002386084368 
0.005222027496 
0.005368452074 
0.004164894069 
0.003625035604 
0.003888493796 
0.003264680272 
0.002885466851 
0.002640012923 
0.001953070004 
0.002526024071 
0.002184980028 
0.006134513273 
0.004926329575 
0.004743588745 
0.003883363177 
0.003097913541 
0.003388467268 
0.002382411687 
0.002405185242 
0.002806519777 
0.002109791935 
0.002281060039 
0.005795750917 
0.004493545194 
0.004291119643 
0.004173043932 
0.003706574924 
0.003340561548 
0.002514545466 
0.002273397006 
0.002191150894 
0.002237392309 
0.002158172886 
0.005899299605 
0.005021716375 
0.004472681646 
0.003789496029 
0.00344875238 
0.002693476898 
0.002692984345 
0.002320630397 
0.002079872994 
0.001761107912 
0.002056633448 
0.006037894374 
0.005365421054 
0.005055630309 
0.004293854941 
0.003193326269 
0.0033213204 
0.003034253984 
0.002690451258 
0.002340962057 
0.002323974054 
0.002364654645 
0.005476811864 
0.005630582488 
0.004293603974 
0.003704463179 
0.004013017325 
0.003106377897 
0.002965340048 
0.002465119735 
0.002287877468 
0.002129276226 
0.001998224729 
0.00539644242 
0.00491258995 
0.004333543898 
0.003759146515 
0.003607190955 
0.0029017957 
0.00286729896 
0.002787879626 
0.001967124285 
0.001821989833 
0.002115171847 
0.00645906832 
0.005066350748 
0.005292744236 
0.004418760232 
0.003458213713 
0.002837926178 
0.002481183762 
0.002035398445 
0.002286625639 
0.00220465807 
0.001723751336 
0.005568566928 
0.005397075684 
0.004821497294 
0.0033101167 
0.003416902354 
0.003039211505 
0.00281680369 
0.002737591985 
0.002270844793 
0.002169708757 
0.001994246219 
0.005543638688 
0.004532051001 
0.004231426445 
0.003994765667 
0.003291684715 
0.003119735535 
0.002556645933 
0.002390689014 
0.002459167998 
0.002391584355 
0.002145182949 
0.006306109577 
0.005142991913 
0.004463167864 
0.003724084344 
0.003614271001 
0.003370751367 
0.002527848974 
0.002800204134 
0.002079543075 
0.002009221635 
0.002726092981 
0.005778640322 
0.005743293953 
0.005189131164 
0.004231884255 
0.003589853237 
0.003607521537 
0.00289019063 
0.002539059043 
0.002138099588 
0.002057454968 
0.002546401811 
0.005342017404 
0.004506015481 
0.004109193225 
0.00388991989 
0.002985814355 
0.002982009393 
0.002662345541 
0.00241907274 
0.001947140182 
0.002103907528 
0.002026907007 
0.005899537914 
0.004882796027 
0.004299562176 
0.004155573201 
0.003124907207 
0.002667787135 
0.002267180538 
0.002414775322 
0.002256038743 
0.001614353355 
0.002180575797 
0.00621625064 
0.005097554505 
0.004636214001 
0.004257048399 
0.003525047489 
0.003243635293 
0.002735806041 
0.002634501803 
0.002192131413 
0.001862828514 
0.001770524652 
0.005940010968 
0.004277119634 
0.005058122277 
0.004143789552 
0.003665143842 
0.003079610701 
0.002778096265 
0.002560330429 
0.002208451742 
0.002384608716 
0.001995411763 
0.005341170295 
0.004232603738 
0.004423440542 
0.004574167371 
0.003409305033 
0.003113234562 
0.002498441101 
0.002807477794 
0.002109198265 
0.002386704933 
0.002040531434 
0.005551534482 
0.004072035397 
0.004291400575 
0.0034387925 
0.002923602828 
0.003302457069 
0.002139977049 
0.002395571997 
0.002120394716 
0.00230653631 
0.001997907352 
0.005664108405 
0.004968013933 
0.004064392953 
0.003785027949 
0.004146852721 
0.002964356735 
0.002648813234 
0.002637924345 
0.002470978854 
0.002408894634 
0.002797617253 
0.006205169495 
0.005066667803 
0.004297341718 
0.003891050491 
0.003595529861 
0.003082093473 
0.002798121893 
0.002967255601 
0.002010250243 
0.002014005543 
0.002126008221 
0.005395934189 
0.004571988233 
0.004706653903 
0.003530922608 
0.003553786168 
0.002817019882 
0.003128061369 
0.002769646398 
0.002326420962 
0.002732955033 
0.002028391333 
0.005592244134 
0.005017960506 
0.004206277178 
0.003871144724 
0.003687551789 
0.002941462789 
0.002668284899 
0.002624797688 
0.002282299564 
0.001788962646 
0.002319961312 
0.00546619477 
0.005038645913 
0.004390046212 
0.003703597534 
0.003364298762 
0.003024540635 
0.002893184747 
0.002348321281 
0.002586111513 
0.002490830628 
0.002106399826 
0.005806424406 
0.005112842079 
0.004481673958 
0.00487760108 
0.003360129936 
0.00310781797 
0.00279138879 
0.003031979297 
0.002138147214 
0.002109923827 
0.002238785767 
0.005766752591 
0.005650385462 
0.00420910061 
0.003766316722 
0.003614002465 
0.002979444979 
0.002900794087 
0.002749128795 
0.002060007999 
0.002542757778 
0.002424522989 
0.005244968641 
0.004760174471 
0.004791800982 
0.003212276554 
0.003826926549 
0.003032204449 
0.002680568971 
0.002556417422 
0.002119361592 
0.002219010454 
0.001788816091 
0.005186776993 
0.005159936194 
0.003802473118 
0.003495986202 
0.003518532672 
0.0029990855 
0.002436970952 
0.00261658903 
0.002079928908 
0.002336074133 
0.002730398796 
0.006098017528 
0.004600023035 
0.004043944197 
0.004545775096 
0.003805708336 
0.003438811176 
0.002591409621 
0.002698629569 
0.002704059657 
0.002031331871 
0.002414850716 
0.005543965045 
0.004792315295 
0.004264254945 
0.004088936416 
0.003485902388 
0.003526860622 
0.00242996719 
0.001862382035 
0.002386755722 
0.002097441114 
0.002169800085 
0.005622357394 
0.005723479649 
0.004287172507 
0.004187234758 
0.00319434215 
0.00330238326 
0.003208539157 
0.00215671336 
0.002434281132 
0.002653038367 
0.002537286595 
0.005657376291 
0.005539365669 
0.00443870085 
0.003763226538 
0.003639046773 
0.002913796376 
0.002882933046 
0.00281405268 
0.002142140448 
0.002389324626 
0.002349832148 
9.086535829e-05 
0.0001412062798 
0.0001308087779 
0.0001103355928 
0.0001092229351 
0.0001041849935 
0.0001087719452 
0.0001074372636 
9.387711868e-05 
0.0001267490013 
0.0001153283811 
9.214531011e-05 
0.0001554165468 
0.0001028675864 
8.407393837e-05 
0.0001004004272 
0.0001137167911 
9.769207299e-05 
0.0001079378401 
0.0001132977516 
0.0001203595474 
0.0001167070444 
0.0001285759901 
0.0001151669632 
0.0001174742316 
0.0001165081863 
0.0001279306772 
0.0001221396789 
0.0001404260439 
0.0001256858015 
0.0001767586221 
0.000138536774 
0.000119103054 
0.0001273198551 
9.874394397e-05 
0.000109545105 
9.357009101e-05 
0.0001038157811 
8.868395675e-05 
9.410424727e-05 
0.0001286795192 
0.0001111345216 
0.0001429839538 
0.0001000257202 
0.0001056250317 
0.0001071520655 
0.0001049660194 
0.0001021776463 
0.0002073623225 
9.905662242e-05 
0.0001004802867 
0.000143804004 
0.0001287205882 
0.0001305482732 
0.0001687429496 
0.0001205954841 
9.660434477e-05 
0.0001037557343 
0.0001063654343 
9.759833669e-05 
0.0001046196943 
0.0003646101894 
0.000141384854 
0.0001120215509 
0.0001165813759 
0.000175440972 
0.0001054396565 
0.0001207445701 
0.0001052204999 
9.09676214e-05 
9.339691418e-05 
0.0001729995102 
9.329025989e-05 
0.0001301982684 
0.0001210515874 
0.0001462244031 
0.0001185909248 
0.0001115137487 
0.0003964054381 
9.927875061e-05 
9.706617628e-05 
9.663219464e-05 
0.00010130467 
0.0001192400913 
9.662507528e-05 
9.473262544e-05 
0.0001007040998 
0.000104107056 
0.0001036976522 
0.0001061450009 
0.0001135857593 
0.0001031210745 
0.0001195462244 
0.0001302010012 
0.0001578133214 
0.0001269932916 
0.0001040861979 
9.86238588e-05 
0.0001091652395 
0.0001067590339 
9.867988043e-05 
0.0001271931044 
0.0001259663465 
0.0002187112794 
0.000135298922 
0.0001173516825 
0.0001739957108 
9.819712114e-05 
0.0001019271974 
0.0001057616665 
0.0001016294885 
0.000105399938 
0.0001544100887 
0.0001286660154 
0.0001264784865 
0.0001347411693 
0.0001166311603 
0.0001029791354 
9.665548967e-05 
0.000100959568 
9.725300271e-05 
0.0001808261039 
9.144797255e-05 
0.0001588590292 
0.0001342834691 
0.0001372240909 
0.0001254801093 
0.0001374382149 
0.0001020284338 
9.087005529e-05 
0.0001076139904 
0.0001045470163 
9.641377509e-05 
0.0001437919114 
0.0001504906185 
0.0001284157894 
0.0001562798538 
0.0001632938928 
0.0001065986279 
0.0002242420792 
0.0001108608586 
0.0001124431758 
0.0001006369999 
9.680874719e-05 
9.08817556e-05 
0.0001709989726 
0.0001232457881 
0.0001157702331 
0.0001127508798 
0.0001185833992 
0.0001033796993 
9.601652914e-05 
0.0001007788242 
0.0001002525166 
9.203376153e-05 
9.0493385e-05 
9.98213181e-05 
8.785023656e-05 
9.763459855e-05 
0.0001567053126 
0.0001471326567 
0.0001048122767 
8.928702138e-05 
9.78242322e-05 
0.0001813606431 
0.0001067948794 
9.80739387e-05 
9.150373252e-05 
9.588461379e-05 
0.0001719510948 
9.946162904e-05 
0.000127187527 
0.0001049327245 
8.336988247e-05 
0.0001203443398 
9.049403057e-05 
8.753495517e-05 
9.745151928e-05 
9.519343604e-05 
9.476303891e-05 
0.0003169251809 
8.816001452e-05 
9.74799071e-05 
0.0001037036344 
9.125754984e-05 
9.678379882e-05 
9.532945663e-05 
0.0001101451599 
0.0001138961798 
9.17484155e-05 
0.0001097708741 
0.000105187711 
0.0001347478174 
0.0001640290098 
0.0001118939714 
0.0001379185766 
0.0001120525904 
9.81005847e-05 
9.893432932e-05 
0.0001039635356 
0.0001071101897 
0.0001080453561 
0.0001084278767 
0.0001434455139 
0.0001313948383 
0.0001249186273 
0.0001497103325 
9.798150593e-05 
9.870795222e-05 
0.0001128269578 
9.903278006e-05 
0.0001136094703 
0.0001016566513 
0.0001079418942 
0.0001355142076 
0.0002929402404 
0.0001177010041 
0.0001517032044 
0.0001246576098 
0.0001131312844 
0.0001090917931 
0.0001025211326 
0.0001012865066 
9.385874058e-05 
0.0001059577012 
0.0001325010619 
0.0001221625442 
0.0001238452011 
0.0001205519493 
0.0001053857878 
9.682178805e-05 
0.0001213638557 
0.0001236160173 
0.0001119150903 
0.0001093898873 
0.0001306866193 
0.0001254277537 
0.0001224113741 
0.0001425421896 
0.000124149089 
0.0001071638222 
0.0001028011263 
0.0001211761551 
0.0001510014122 
9.885270984e-05 
9.774945066e-05 
9.133273289e-05 
0.000134242098 
0.0001208550751 
0.000117891684 
0.0001167727757 
0.0001775383466 
0.0001382004618 
9.914052697e-05 
0.0001134260679 
0.000108126365 
9.625165929e-05 
0.0001020005397 
0.000137877487 
0.0001186105376 
0.0001181348702 
0.0001231919837 
0.0001034206673 
0.0001198056605 
0.0001074925374 
0.0001052619813 
0.0001358656895 
8.339067677e-05 
9.212188632e-05 
0.0001287943 
0.0001290781019 
0.0001791079688 
0.0001337929596 
0.0001111280667 
0.0001017364245 
0.0001007391012 
0.0001144504153 
9.131948071e-05 
9.915717584e-05 
9.631944837e-05 
0.0001513692786 
0.0001179873693 
0.0001221610524 
0.0002183727328 
0.0001106314722 
0.0001086438758 
0.0001002380494 
0.0001030554673 
9.553543935e-05 
9.958631921e-05 
9.633425501e-05 
0.0001480728607 
0.0001413726889 
0.0001223279101 
0.0001207486045 
0.0001204952986 
0.0001086440027 
0.0001089783724 
0.0001015782656 
9.365932045e-05 
0.0001678574103 
0.0001087263361 
0.0001611292694 
0.0001187583914 
0.0001207182696 
0.0001124439721 
0.0001682801867 
0.0001045557824 
9.419073556e-05 
0.0001037676037 
0.000100085543 
0.0001167929673 
0.0001109575545 
0.0001325889432 
0.0001266373914 
0.0001323115852 
0.0001200540087 
0.0001187316399 
0.000119076672 
0.0001084598048 
0.0001126946995 
9.400035102e-05 
0.0001022189844 
8.981559503e-05 
0.0001254371398 
0.0001231879656 
0.0001074415879 
0.000139482009 
0.0001216075787 
0.0002504689523 
0.0001143818269 
0.000122800726 
9.972787657e-05 
0.0001011800472 
0.0001881182386 
0.000166324959 
0.0001273730427 
0.0001303866415 
0.0001163066013 
0.0001132505148 
0.0001878276119 
0.000107088311 
9.460804824e-05 
9.72413405e-05 
0.0001187560696 
9.12245652e-05 
0.0001465159149 
0.0001313857781 
0.0001180419147 
0.0001173321934 
0.000143457947 
0.0001090119424 
0.000118751445 
9.694081541e-05 
9.5589799e-05 
0.0001812819467 
0.0001146143468 
0.0001684223489 
0.0001237247534 
0.0001265207059 
0.0001283747152 
0.0001350825724 
0.0001071309624 
0.000132875156 
8.453186314e-05 
0.0001106212062 
0.0001025122976 
0.0001036778706 
0.0001311351725 
0.0001290417311 
0.000126905855 
0.0001198033717 
0.0001278891631 
0.0001052170227 
9.603696278e-05 
9.582035942e-05 
9.52931947e-05 
0.000103729385 
0.0002715546344 
0.0001320809026 
0.0001323816391 
0.0001172384131 
0.0001096528368 
0.0001103418969 
0.000116411673 
9.181061672e-05 
0.0001024229952 
0.0001084760295 
0.0001074667112 
8.973681703e-05 
0.0001422039132 
0.0001314018395 
0.0001292917248 
0.000113588374 
0.0001204961849 
0.0001380857221 
0.0001091005809 
9.71263542e-05 
9.104019671e-05 
0.0001186388269 
8.728029841e-05 
0.0001349593221 
0.000127490317 
0.0001425328286 
0.0001147573998 
0.0002391362926 
0.000115759998 
9.880619926e-05 
0.000107919254 
8.818848737e-05 
0.0001018501843 
0.0001000054785 
0.0001247878443 
0.0001247784843 
0.0001146487926 
0.0001182488194 
0.0001186770311 
0.0001051297431 
0.0001079133679 
9.491133425e-05 
0.0001011702407 
0.0001261109594 
0.0001004818259 
0.0001549289265 
0.0001345086687 
0.000184339528 
0.0001077577616 
0.0003194233372 
0.0001044611644 
0.0001184858353 
9.703799279e-05 
0.0001218139774 
8.831001453e-05 
9.520802011e-05 
0.0001251988904 
0.0001314751581 
0.0001152133285 
0.0001292105876 
0.0001093371954 
0.000147779949 
9.629979027e-05 
0.0001345700569 
0.0001009767184 
8.875152722e-05 
9.471447741e-05 
0.0001294588861 
0.0001420594484 
0.0001210336312 
0.0001137700204 
0.0001254667439 
0.0001200442635 
0.0001133649717 
0.000104053308 
0.0001026104792 
0.0001006849234 
0.0001033185296 
0.0001306949976 
0.0001218925203 
0.0001158202025 
0.0001393240645 
0.0001193503839 
0.00010113813 
0.0001032809155 
0.0001007939452 
9.033649938e-05 
0.0001291522213 
9.725779523e-05 
0.0001272585905 
0.0001214587168 
0.0001285463879 
0.0002118932418 
0.0001375040253 
0.0001207289698 
0.0001253416279 
9.866934947e-05 
0.0002436413717 
0.00031891085 
9.981780614e-05 
0.0001252132308 
0.0001823070683 
0.0001152765595 
0.0001217079109 
0.0001438365726 
9.938616787e-05 
0.0001080621702 
0.0001025329223 
0.0001099422325 
0.0001060189654 
0.00011530533 
0.0001345206186 
0.0001325080457 
0.0001374880458 
0.0001079705104 
0.00011467855 
0.0001134773095 
0.0001088617111 
9.987010525e-05 
0.0001089094352 
8.868113817e-05 
0.0001014046567 
0.0001820728616 
0.0001349484956 
0.0001188824064 
0.0001054183781 
0.0001127437572 
0.0001018177396 
0.0001138907211 
0.0001046506304 
0.0001057812911 
0.0001573751312 
0.0001554895316 
0.0001420410871 
0.0001162782865 
0.000119972507 
0.000114123058 
0.0001333725641 
0.0001054357249 
0.0001132010864 
0.0001181870947 
0.000105608004 
9.239442835e-05 
0.0001009714136 
0.0001252897829 
0.0001320168956 
0.00012206272 
0.0001311553004 
0.0001054119462 
0.0001042748376 
9.573134351e-05 
0.0001193325343 
0.0001113595274 
0.0001072289914 
0.0001027409453 
0.0001402816422 
0.0001258729418 
0.0001829772763 
9.579887371e-05 
0.0001250163816 
0.000103743206 
0.000111458827 
0.0001107248373 
0.0001061501201 
0.0001055319144 
9.16077608e-05 
0.0001413779673 
0.0001474358904 
0.000127346638 
0.0001324465373 
0.0001139045414 
0.0001230482909 
0.0001057447901 
0.0001118128025 
9.820454129e-05 
8.1787977e-05 
0.0001466108346 
0.0001544636034 
0.0001242299603 
0.0001246782138 
0.000113366253 
0.0001072503169 
0.0001193145728 
0.0001126278111 
0.0001001067563 
0.0002483390786 
0.0001402529443 
0.0003558337498 
0.000145160092 
0.000114390206 
0.0001135143056 
0.0001530583401 
0.0001193715496 
0.0001007119566 
0.0001227864458 
0.0001024621222 
8.978404276e-05 
0.0002621469523 
9.276608376e-05 
0.0001234576353 
0.0001135427706 
0.0001519855908 
0.0001130910256 