# vtk DataFile Version 3.0
MOAB 4.99 (Alpha)
ASCII
DATASET UNSTRUCTURED_GRID
POINTS 991 double
3 1 1
3 -1 1
3 -0.6 1
3 -0.2 1
3 0.2 1
3 0.6 1
3 -1 -1
3 -1 -0.6
3 -1 -0.2
3 -1 0.2
3 -1 0.6
3 1 -1
3 0.6 -1
3 0.2 -1
3 -0.2 -1
3 -0.6 -1
3 1 0.6
3 1 0.2
3 1 -0.2
3 1 -0.6
3 0.4078020432 -0.6749386695
3 -0.002766679691 -0.6463410443
3 -0.4112057218 -0.6804751274
3 0.6738065205 0.4096535765
3 0.6392445975 0.001240977363
3 0.6700947697 -0.4102754248
3 -0.3800088874 0.6821110447
3 0.01793759988 0.6594720195
3 0.4138645449 0.6772501547
3 -0.6747109622 -0.4230382477
3 -0.6486777191 -0.04064326267
3 -0.6106821934 0.3715558838
3 0.7355793626 -0.7370428189
3 -0.7371833368 -0.740702675
3 0.7375342131 0.7373807462
3 -0.7181382162 0.7307333857
3 0.2352751843 -0.2445881183
3 -0.2727034516 -0.2738282128
3 0.2488119959 0.2685945903
3 -0.1884632912 0.3500036415
3 -0.06527557032 0.0371682853
3 -0.3571604451 0.08885126704
10 1 1
10 -1 1
10 0.6 1
10 0.2 1
10 -0.2 1
10 -0.6 1
10 -1 -1
10 -1 0.6
10 -1 0.2
10 -1 -0.2
10 -1 -0.6
10 1 -1
10 -0.6 -1
10 -0.2 -1
10 0.2 -1
10 0.6 -1
10 1 -0.6
10 1 -0.2
10 1 0.2
10 1 0.6
10 0.4052531952 0.6719438381
10 -0.001326739737 0.6398182875
10 -0.4084466782 0.6730790076
10 -0.671668119 0.4109975243
10 -0.6409559612 0.002665308352
10 -0.6741562537 -0.4067531861
10 -0.4126332896 -0.6703225438
10 -0.005823851008 -0.6385848783
10 0.4033337139 -0.671818987
10 0.6657077798 -0.40925766
10 0.6331965555 -5.201324309e-05
10 0.6677757402 0.4090861353
10 0.7346057871 0.7362059947
10 -0.7360229594 0.7368153064
10 -0.7373579087 -0.735415146
10 0.7338082987 -0.7362153294
10 0.2405618544 0.2463031768
10 -0.2488935914 0.2473010883
10 -0.2507661259 -0.2443109294
10 0.2398134703 -0.2452073142
10 -0.004821098151 0.001021505389
9.611111111 1 -1
9.222222222 1 -1
8.833333333 1 -1
8.444444444 1 -1
8.055555556 1 -1
7.666666667 1 -1
7.277777778 1 -1
6.888888889 1 -1
6.5 1 -1
6.111111111 1 -1
5.722222222 1 -1
5.333333333 1 -1
4.944444444 1 -1
4.555555556 1 -1
4.166666667 1 -1
3.777777778 1 -1
3.388888889 1 -1
3.388888889 -1 -1
3.777777778 -1 -1
4.166666667 -1 -1
4.555555556 -1 -1
4.944444444 -1 -1
5.333333333 -1 -1
5.722222222 -1 -1
6.111111111 -1 -1
6.5 -1 -1
6.888888889 -1 -1
7.277777778 -1 -1
7.666666667 -1 -1
8.055555556 -1 -1
8.444444444 -1 -1
8.833333333 -1 -1
9.222222222 -1 -1
9.611111111 -1 -1
9.475998682 0.635536549 -1
9.050778679 0.6376323359 -1
8.644731394 0.6524287943 -1
8.251207926 0.6588417959 -1
7.860952665 0.6615090463 -1
7.47168141 0.6626980856 -1
7.082730559 0.6632214012 -1
6.693866541 0.6634322606 -1
6.305010827 0.6635015526 -1
5.916141326 0.6635100857 -1
5.527250491 0.6634953849 -1
5.138327804 0.6634773361 -1
4.749355696 0.6634656274 -1
4.35546384 0.6606773696 -1
3.946920807 0.6509364685 -1
3.522069168 0.6475171337 -1
9.683564902 -0.335850451 -1
9.656190968 -0.001093141104 -1
9.683371263 0.3342642017 -1
3.548835373 -0.6484388432 -1
3.965704098 -0.6635314353 -1
4.359197406 -0.6663573588 -1
4.749198126 -0.6670103116 -1
5.138537377 -0.6674208937 -1
5.527617247 -0.6676585868 -1
5.916569015 -0.6677687859 -1
6.305459175 -0.6678134962 -1
6.694315149 -0.6678467273 -1
7.083141286 -0.6679283853 -1
7.471943462 -0.6681577548 -1
7.860786476 -0.6686908946 -1
8.251086686 -0.667966666 -1
8.644941232 -0.6615036162 -1
9.050388748 -0.6437917491 -1
9.475209274 -0.6374148592 -1
3.31306466 0.3547037046 -1
3.338737589 0.04492747269 -1
3.383337125 -0.3006966981 -1
9.281391386 0.2365030706 -1
8.839143368 0.3043463875 -1
8.445620486 0.319936959 -1
8.055539719 0.3248676775 -1
7.666067028 0.3270715599 -1
7.277003806 0.3281742519 -1
6.888118891 0.328685024 -1
6.499278225 0.3288925301 -1
6.110425804 0.3289641809 -1
5.721534804 0.3289955858 -1
5.332572622 0.329050609 -1
4.943493126 0.3291699651 -1
4.551257007 0.3264352381 -1
4.146382704 0.3140326777 -1
3.695275218 0.2746035209 -1
9.280790073 -0.2441722493 -1
3.777013507 -0.3396410167 -1
4.163203398 -0.3393353371 -1
4.553613979 -0.3366823476 -1
4.943452409 -0.3359197579 -1
5.332747236 -0.3360460677 -1
5.721795464 -0.3361928637 -1
6.110719108 -0.3362737199 -1
6.499575679 -0.3363413401 -1
6.88838919 -0.3364870854 -1
7.277186808 -0.3368594471 -1
7.666056844 -0.3376713408 -1
8.055791421 -0.33805613 -1
8.446058903 -0.3343068537 -1
8.838932461 -0.3169197984 -1
8.974816722 -0.005980779444 -1
8.632347325 -0.007016981087 -1
8.249280456 -0.007000588633 -1
7.860671616 -0.006128707231 -1
7.471573769 -0.005109247897 -1
7.082655911 -0.004421596493 -1
6.693810847 -0.004082714285 -1
6.3049656 -0.00393577257 -1
5.916079822 -0.003854502132 -1
5.527110608 -0.003751952622 -1
5.137993046 -0.003595314239 -1
4.74796771 -0.004766061811 -1
4.354660694 -0.01070619839 -1
3.961791293 -0.02783630085 -1
3.631230946 -0.06972860441 -1
9.611111111 -1 1
9.222222222 -1 1
8.833333333 -1 1
8.444444444 -1 1
8.055555556 -1 1
7.666666667 -1 1
7.277777778 -1 1
6.888888889 -1 1
6.5 -1 1
6.111111111 -1 1
5.722222222 -1 1
5.333333333 -1 1
4.944444444 -1 1
4.555555556 -1 1
4.166666667 -1 1
3.777777778 -1 1
3.388888889 -1 1
3.517242518 -1 -0.6397823763
3.939887439 -1 -0.6405683698
4.349206568 -1 -0.6510002149
4.746207335 -1 -0.6574274135
5.13811135 -1 -0.6607449531
5.528009339 -1 -0.6623519183
5.917173503 -1 -0.6630784687
6.306105346 -1 -0.6633769875
6.694982019 -1 -0.663480922
7.083859126 -1 -0.6635021653
7.472757636 -1 -0.6634950746
7.86170527 -1 -0.6635043541
8.250782816 -1 -0.6636332805
8.643343703 -1 -0.6604692063
9.048386302 -1 -0.6459671733
9.473926996 -1 -0.6400309287
9.682749051 -1 0.3304729417
9.654602385 -1 -0.005130662797
9.681767632 -1 -0.3391035561
9.475519815 -1 0.6332955936
9.050884101 -1 0.6380913854
8.645720583 -1 0.6559106743
8.252442893 -1 0.6637082481
7.86199698 -1 0.6665060019
7.472550067 -1 0.6674322973
7.08348295 -1 0.6677210152
6.694557585 -1 0.6678101585
6.30569008 -1 0.6678638272
5.916855039 -1 0.6679839829
5.528019453 -1 0.6683167443
5.139011476 -1 0.6691152355
4.749244222 -1 0.6706933093
4.357633085 -1 0.6738771327
3.963321257 -1 0.6737641851
3.546900098 -1 0.6571889742
3.307972 -1 -0.3458002842
3.333721558 -1 -0.03426015713
3.379775377 -1 0.3108127695
3.688670022 -1 -0.2607999662
4.138540696 -1 -0.2990228426
4.545480898 -1 -0.3147441607
4.94129585 -1 -0.32231283
5.332857978 -1 -0.3260043571
5.722649785 -1 -0.327748082
6.111775586 -1 -0.3285196802
6.5006938 -1 -0.3288298945
6.889575767 -1 -0.328942631
7.278497431 -1 -0.3290084893
7.667551742 -1 -0.3291851027
8.056972999 -1 -0.3298544201
8.446568646 -1 -0.3290657148
8.838428066 -1 -0.3159449927
9.279509505 -1 -0.2456660586
9.28043997 -1 0.2359814688
8.839765595 -1 0.3079211365
8.447320378 -1 0.3265649923
8.057430178 -1 0.3329762596
7.667619965 -1 0.335251224
7.27833165 -1 0.3359990578
6.889320859 -1 0.3362414183
6.500429805 -1 0.3363682459
6.111581537 -1 0.3365880291
5.722681298 -1 0.3371430988
5.333435354 -1 0.3384424418
4.94305496 -1 0.3411301072
4.55092463 -1 0.3466372791
4.158423997 -1 0.3536953396
3.771798139 -1 0.3544176444
3.955649712 -1 0.04313147074
4.349171637 -1 0.02403677456
4.744697065 -1 0.01398934099
5.137270538 -1 0.008644226938
5.527719781 -1 0.005992426486
5.917119272 -1 0.004745817659
6.306125855 -1 0.004201196248
6.695032286 -1 0.003968564667
7.083972225 -1 0.003808322242
7.4730744 -1 0.003467136352
7.862585812 -1 0.002384925102
8.251067791 -1 -5.984226965e-05
8.633263785 -1 -0.002838499651
8.974281384 -1 -0.004109389126
3.625922962 -1 0.08266035227
3.388888889 1 1
3.777777778 1 1
4.166666667 1 1
4.555555556 1 1
4.944444444 1 1
5.333333333 1 1
5.722222222 1 1
6.111111111 1 1
6.5 1 1
6.888888889 1 1
7.277777778 1 1
7.666666667 1 1
8.055555556 1 1
8.444444444 1 1
8.833333333 1 1
9.222222222 1 1
9.611111111 1 1
9.475998682 -0.635536549 1
9.050778679 -0.6376323359 1
8.644731394 -0.6524287943 1
8.251207926 -0.6588417959 1
7.860952665 -0.6615090463 1
7.47168141 -0.6626980856 1
7.082730559 -0.6632214012 1
6.693866541 -0.6634322606 1
6.305010827 -0.6635015526 1
5.916141326 -0.6635100857 1
5.527250491 -0.6634953849 1
5.138327804 -0.6634773361 1
4.749355696 -0.6634656274 1
4.35546384 -0.6606773696 1
3.946920807 -0.6509364685 1
3.522069168 -0.6475171337 1
9.683564902 0.335850451 1
9.656190968 0.001093141104 1
9.683371263 -0.3342642017 1
3.548835373 0.6484388432 1
3.965704098 0.6635314353 1
4.359197406 0.6663573588 1
4.749198126 0.6670103116 1
5.138537377 0.6674208937 1
5.527617247 0.6676585868 1
5.916569015 0.6677687859 1
6.305459175 0.6678134962 1
6.694315149 0.6678467273 1
7.083141286 0.6679283853 1
7.471943462 0.6681577548 1
7.860786476 0.6686908946 1
8.251086686 0.667966666 1
8.644941232 0.6615036162 1
9.050388748 0.6437917491 1
9.475209274 0.6374148592 1
3.31306466 -0.3547037046 1
3.338737589 -0.04492747269 1
3.383337125 0.3006966981 1
9.281391386 -0.2365030706 1
8.839143368 -0.3043463875 1
8.445620486 -0.319936959 1
8.055539719 -0.3248676775 1
7.666067028 -0.3270715599 1
7.277003806 -0.3281742519 1
6.888118891 -0.328685024 1
6.499278225 -0.3288925301 1
6.110425804 -0.3289641809 1
5.721534804 -0.3289955858 1
5.332572622 -0.329050609 1
4.943493126 -0.3291699651 1
4.551257007 -0.3264352381 1
4.146382704 -0.3140326777 1
3.695275218 -0.2746035209 1
9.280790073 0.2441722493 1
3.777013507 0.3396410167 1
4.163203398 0.3393353371 1
4.553613979 0.3366823476 1
4.943452409 0.3359197579 1
5.332747236 0.3360460677 1
5.721795464 0.3361928637 1
6.110719108 0.3362737199 1
6.499575679 0.3363413401 1
6.88838919 0.3364870854 1
7.277186808 0.3368594471 1
7.666056844 0.3376713408 1
8.055791421 0.33805613 1
8.446058903 0.3343068537 1
8.838932461 0.3169197984 1
8.974816722 0.005980779444 1
8.632347325 0.007016981087 1
8.249280456 0.007000588633 1
7.860671616 0.006128707231 1
7.471573769 0.005109247897 1
7.082655911 0.004421596493 1
6.693810847 0.004082714285 1
6.3049656 0.00393577257 1
5.916079822 0.003854502132 1
5.527110608 0.003751952622 1
5.137993046 0.003595314239 1
4.74796771 0.004766061811 1
4.354660694 0.01070619839 1
3.961791293 0.02783630085 1
3.631230946 0.06972860441 1
3.517242518 1 0.6397823763
3.939887439 1 0.6405683698
4.349206568 1 0.6510002149
[...]
CELL_DATA 6777
SCALARS TALLY_TAG double 1
LOOKUP_TABLE default
0 
0 
0 
0 
0 
0 
0 
0 
0 
0 
0 
0 
0 
0 
0 
0 
0 
0 
0 
0 
0 
0 
0 
0 
0 
0 
0 
0 
0 
0 
0 
0 
0 
0 
0 
0 
0 
0 
0 
0 
0 
0 
0 
0 
0 
0 
0 
0 
0 
0 
0 
0 
0 
0 
0 
0 
0 
0 
0 
0 
0 
0 
0 
0 
0 
0 
0 
0 
0 
0 
0 
0 
0 
0 
0 
0 
0 
0 
0 
0 
0 
0 
0 
0 
0 
0 
0 
0 
0 
0 
0 
0 
0 
0 
0 
0 
0 
0 
0 
0 
0 
0 
0 
0 
0 
0 
0 
0 
0 
0 
0 
0 
0 
0 
0 
0 
0 
0 
0 
0 
0 
0 
0 
0 
0 
0 
0 
0 
0 
0 
0 
0 
0 
0 
0 
0 
0 
0 
0 
0 
0 
0 
0 
0 
0 
0 
0 
0 
0 
0 
0 
0 
0 
0 
0 
0 
0 
0 
0 
0 
0 
0 
0 
0 
0 
0 
0 
0 
0 
0 
0 
0 
0 
0 
0 
0 
0 
0 
0 
0 
0 
0 
0 
0 
0 
0 
0 
0 
0 
0 
0 
0 
0 
0 
0 
0 
0 
0 
0 
0 
0 
0 
0 
0 
0 
0 
0 
0 
0 
0 
0 
0 
0 
0 
0 
0 
0 
0 
0 
0 
0 
0 
0 
0 
0 
0 
0 
0 
0 
0 
0 
0 
0 
0 
0 
0 
0 
0 
0 
0 
0 
0 
0 
0 
0 
0 
0 
0 
0 
0 
0 
0 
0 
0 
0 
0 
0 
0 
0 
0 
0 
0 
0 
0 
0 
0 
0 
0 
0 
0 
0 
0 
0 
0 
0 
0 
0 
0 
0 
0 
0 
0 
0 
0 
0 
0 
0 
0 
0 
0 
0 
0 
0 
0 
0 
0 
0 
0 
0 
0 
0 
0 
0 
0 
0 
0 
0 
0 
0 
0 
0 
0 
0 
0 
0 
0 
0 
0 
0 
0 
0 
0 
0 
0 
0 
0 
0 
0 
0 
0 
0 
0 
0 
0 
0 
0 
0 
0 
0 
0 
0 
0 
0 
0 
0 
0 
0 
0 
0 
0 
0 
0 
0 
0 
0 
0 
0 
0 
0 
0 
0 
0 
0 
0 
0 
0 
0 
0 
0 
0 
0 
0 
0 
0 
0 
0 
0 
0 
0 
0 
0 
0 
0 
0 
0 
0 
0 
0 
0 
0 
0 
0 
0 
0 
0 
0 
0 
0 
0 
0 
0 
0 
0 
0 
0 
0 
0 
0 
0 
0 
0 
0 
0 
0 
0 
0 
0 
0 
0 
0 
0 
0 
0 
0 
0 
0 
0 
0 
0 
0 
0 
0 
0 
0 
0 
0 
0 
0 
0 
0 
0 
0 
0 
0 
0 
0 
0 
0 
0 
0 
0 
0 
0 
0 
0 
0 
0 
0 
0 
0 
0 
0 
0 
0 
0 
0 
0 
0 
0 
0 
0 
0 
0 
0 
0 
0 
0 
0 
0 
0 
0 
0 
0 
0 
0 
0 
0 
0 
0 
0 
0 
0 
0 
0 
0 
0 
0 
0 
0 
0 
0 
0 
0 
0 
0 
0 
0 
0 
0 
0 
0 
0 
0 
0 
0 
0 
0 
0 
0 
0 
0 
0 
0 
0 
0 
0 
0 
0 
0 
0 
0 
0 
0 
0 
0 
0 
0 
0 
0 
0 
0 
0 
0 
0 
0 
0 
0 
0 
0 
0 
0 
0 
0 
0 
0 
0 
0 
0 
0 
0 
0 
0 
0 
0 
0 
0 
0 
0 
0 
0 
0 
0 
0 
0 
0 
0 
0 
0 
0 
0 
0 
0 
0 
0 
0 
0 
0 
0 
0 
0 
0 
0 
0 
0 
0 
0 
0 
0 
0 
0 
0 
0 
0 
0 
0 
0 
0 
0 
0 
0 
0 
0 
0 
0 
0 
0 
0 
0 
0 
0 
0 
0 
0 
0 
0 
0 
0 
0 
0 
0 
0 
0 
0 
0 
0 
0 
0 
0 
0 
0 
0 
0 
0 
0 
0 
0 
0 
0 
0 
0 
0 
0 
0 
0 
0 
0 
0 
0 
0 
0 
0 
0 
0 
0 
0 
0 
0 
0 
0 
0 
0 
0 
0 
0 
0 
0 
0 
0 
0 
0 
0 
0 
0 
0 
0 
0 
0 
0 
0 
0 
0 
0 
0 
0 
0 
0 
0 
0 
0 
0 
0 
0 
0 
0 
0 
0 
0 
0 
0 
0 
0 
0 
0 
0 
0 
0 
0 
0 
0 
0 
0 
0 
0 
0 
0 
0 
0 
0 
0 
0 
0 
0 
0 
0 
0 
0 
0 
0 
0 
0 
0 
0 
0 
0 
0 
0 
0 
0 
0 
0 
0 
0 
0 
0 
0 
0 
0 
0 
0 
0 
0 
0 
0 
0 
0 
0 
0 
0 
0 
0 
0 
0 
0 
0 
0 
0 
0 
0 
0 
0 
0 
0 
0 
0 
0 
0 
0 
0 
0 
0 
0 
0 
0 
0 
0 
0 
0 
0 
0 
0 
0 
0 
0 
0 
0 
0 
0 
0 
0 
0 
0 
0 
0 
0 
0 
0 
0 
0 
0 
0 
0 
0 
0 
0 
0 
0 
0 
0 
0 
0 
0 
0 
0 
0 
0 
0 
0 
0 
0 
0 
0 
0 
0 
0 
0 
0 
0 
0 
0 
0 
0 
0 
0 
0 
0 
0 
0 
0 
0 
0 
0 
0 
0 
0 
0 
0 
0 
0 
0 
0 
0 
0 
0 
0 
0 
0 
0 
0 
0 
0 
0 
0 
0 
0 
0 
0 
0 
0 
0 
0 
0 
0 
0 
0 
0 
0 
0 
0 
0 
0 
0 
0 
0 
0 
0 
0 
0 
0 
0 
0 
0 
0 
0 
0 
0 
0 
0 
0 
0 
0 
0 
0 
0 
0 
0 
0 
0 
0 
0 
0 
0 
0 
0 
0 
0 
0 
0 
0 
0 
0 
0 
0 
0 
0 
0 
0 
0 
0 
0 
0 
0 
0 
0 
0 
0 
0 
0 
0 
0 
0 
0 
0 
0 
0 
0 
0 
0 
0 
0 
0 
0 
0 
0 
0 
0 
0 
0 
0 
0 
0 
0 
0 
0 
0 
0 
0 
0 
0 
0 
0 
0 
0 
0 
0 
0 
0 
0 
0 
0 
0 
0 
0 
0 
0 
0 
0 
0 
0 
0 
0 
0 
0 
0 
0 
0 
0 
0 
0 
0 
0 
0 
0 
0 
0 
0 
0 
0 
0 
0 
0 
0 
0 
0 
0 
0 
0 
0 
0 
0 
0 
0 
0 
0 
0 
0 
0 
0 
0 
0 
0 
0 
0 
0 
0 
0 
0 
0 
0 
0 
0 
0 
0 
0 
0 
0 
0 
0 
0 
0 
0 
0 
0 
0 
0 
0 
0 
0 
0 
0 
0 
0 
0 
0 
0 
0 
0 
0 
0 
0 
0 
0 
0 
0 
0 
0 
0 
0 
0 
0 
0 
0 
0 
0 
0 
0 
0 
0 
0 
0 
0 
0 
0 
0 
0 
0 
0 
0 
0 
0 
0 
0 
0 
0 
0 
0 
0 
0 
0 
0 
0 
0 
0 
0 
0 
0 
0 
0 
0 
0 
0 
0 
0 
0 
0 
0 
0 
0 
0 
0 
0 
0 
0 
0 
0 
0 
0 
0 
0 
0 
0 
0 
0 
0 
0 
0 
0 
0 
0 
0 
0 
0 
0 
0 
0 
0 
0 
0 
0 
0 
0 
0 
0 
0 
0 
0 
0 
0 
0 
0 
0 
0 
0 
0 
0 
0 
0 
0 
0 
0 
0 
0 
0 
0 
0 
0 
0 
0 
0 
0 
0 
0 
0 
0 
0 
0 
0 
0 
0 
0 
0 
0 
0 
0 
0 
0 
0 
0 
0 
0 
0 
0 
0 
0 
0 
0 
0 
0 
0 
0 
0 
0 
0 
0 
0 
0 
0 
0 
0 
0 
0 
0 
0 
0 
0 
0 
0 
0 
0 
0 
0 
0 
0 
0 
0 
0 
0 
0 
0 
0 
0 
0 
0 
0 
0 
0 
0 
0 
0 
0 
0 
0 
0 
0 
0 
0 
0 
0 
0 
0 
0 
0 
0 
0 
0 
0 
0 
0 
0 
0 
0 
0 
0 
0 
0 
0 
0 
0 
0 
0 
0 
0 
0 
0 
0 
0 
0 
0 
0 
0 
0 
0 
0 
0 
0 
0 
0 
0 
0 
0 
0 
0 
0 
0 
0 
0 
0 
0 
0 
0 
0 
0 
0 
0 
0 
0 
0 
0 
0 
0 
0 
0 
0 
0 
0 
0 
0 
0 
0 
0 
0 
0 
0 
0 
0 
0 
0 
0 
0 
0 
0 
0 
0 
0 
0 
0 
0 
0 
0 
0 
0 
0 
0 
0 
0 
0 
0 
0 
0 
0 
0 
0 
0 
0 
0 
0 
0 
0 
0 
0 
0 
0 
0 
0 
0 
0 
0 
0 
0 
0 
0 
0 
0 
0 
0 
0 
0 
0 
0 
0 
0 
0 
0 
0 
0 
0 
0 
0 
0 
0 
0 
0 
0 
0 
0 
0 
0 
0 
0 
0 
0 
0 
0 
0 
0 
0 
0 
0 
0 
0 
0 
0 
0 
0 
0 
0 
0 
0 
0 
0 
0 
0 
0 
0 
0 
0 
0 
0 
0 
0 
0 
0 
0 
0 
0 
0 
0 
0 
0 
0 
0 
0 
0 
0 
0 
0 
0 
0 
0 
0 
0 
0 
0 
0 
0 
0 
0 
0 
0 
0 
0 
0 
0 
0 
0 
0 
0 
0 
0 
0 
0 
0 
0 
0 
0 
0 
0 
0 
0 
0 
0 
0 
0 
0 
0 
0 
0 
0 
0 
0 
0 
0 
0 
0 
0 
0 
0 
0 
0 
0 
0 
0 
0 
0 
0 
0 
0 
0 
0 
0 
0 
0 
0 
0 
0 
0 
0 
0 
0 
0 
0 
0 
0 
0 
0 
0 
0 
0 
0 
0 
0 
0 
0 
0 
0 
0 
0 
0 
0 
0 
0 
0 
0 
0 
0 
0 
0 
0 
0 
0 
0 
0 
0 
0 
0 
0 
0 
0 
0 
0 
0 
0 
0 
0 
0 
0 
0 
0 
0 
0 
0 
0 
0 
0 
0 
0 
0 
0 
0 
0 
0 
0 
0 
0 
0 
0 
0 
0 
0 
0 
0 
0 
0 
0 
0 
0 
0 
0 
0 
0 
0 
0 
0 
0 
0 
0 
0 
0 
0 
0 
0 
0 
0 
0 
0 
0 
0 
0 
0 
0 
0 
0 
0 
0 
0 
0 
0 
0 
0 
0 
0 
0 
0 
0 
0 
0 
0 
0 
0 
0 
0 
0 
0 
0 
0 
0 
0 
0 
0 
0 
0 
0 
0 
0 
0 
0 
0 
0 
0 
0 
0 
0 
0 
0 
0 
0 
0 
0 
0 
0 
0 
0 
0 
0 
0 
0 
0 
0 
0 
0 
0 
0 
0 
0 
0 
0 
0 
0 
0 
0 
0 
0 
0 
0 
0 
0 
0 
0 
0 
0 
0 
0 
0 
0 
0 
0 
0 
0 
0 
0 
0 
0 
0 
0 
0 
0 
0 
0 
0 
0 
0 
0 
0 
0 
0 
0 
0 
0 
0 
0 
0 
0 
0 
0 
0 
0 
0 
0 
0 
0 
0 
0 
0 
0 
0 
0 
0 
0 
0 
0 
0 
0 
0 
0 
0 
0 
0 
0 
0 
0 
0 
0 
0 
0 
0 
0 
0 
0 
0 
0 
0 
0 
0 
0 
0 
0 
0 
0 
0 
0 
0 
0 
0 
0 
0 
0 
0 
0 
0 
0 
0 
0 
0 
0 
0 
0 
0 
0 
0 
0 
0 
0 
0 
0 
0 
0 
0 
0 
0 
0 
0 
0 
0 
0 
0 
0 
0 
0 
0 
0 
0 
0 
0 
0 
0 
0 
0 
0 
0 
0 
0 
0 
0 
0 
0 
0 
0 
0 
0 
0 
0 
0 
0 
0 
0 
0 
0 
0 
0 
0 
0 
0 
0 
0 
0 
0 
0 
0 
0 
0 
0 
0 
0 
0 
0 
0 
0 
0 
0 
0 
0 
0 
0 
0 
0 
0 
0 
0 
0 
0 
0 
0 
0 
0 
0 
0 
0 
0 
0 
0 
0 
0 
0 
0 
0 
0 
0 
0 
0 
0 
0 
0 
0 
0 
0 
0 
0 
0 
0 
0 
0 
0 
0 
0 
0 
0 
0 
0 
0 
0 
0 
0 
0 
0 
0 
0 
0 
0 
0 
0 
0 
0 
0 
0 
0 
0 
0 
0 
0 
0 
0 
0 
0 
0 
0 
0 
0 
0 
0 
0 
0 
0 
0 
0 
0 
0 
0 
0 
0 
0 
0 
0 
0 
0 
0 
0 
0 
0 
0 
0 
0 
0 
0 
0 
0 
0 
0 
0 
0 
0 
0 
0 
0 
0 
0 
0 
0 
0 
0 
0 
0 
0 
0 
0 
0 
0 
0 
0 
0 
0 
0 
0 
0 
0 
0 
0 
0 
0 
0 
0 
0 
0 
0 
0 
0 
0 
0 
0 
0 
0 
0 
0 
0 
0 
0 
0 
0 
0 
0 
0 
0 
0 
0 
0 
0 
0 
0 
0 
0 
0 
0 
0 
0 
0 
0 
0 
0 
0 
0 
0 
0 
0 
0 
0 
0 
0 
0 
0 
0 
0 
0 
0 
0 
0 
0 
0 
0 
0 
0 
0 
0 
0 
0 
0 
0 
0 
0 
0 
0 
0 
0 
0 
0 
0 
0 
0 
0 
0 
0 
0 
0 
0 
0 
0 
0 
0 
0 
0 
0 
0 
0 
0 
0 
0 
0 
0 
0 
0 
0 
0 
0 
0 
0 
0 
0 
0 
0 
0 
0 
0 
0 
0 
0 
0 
0 
0 
0 
0 
0 
0 
0 
0 
0 
0 
0 
0 
0 
0 
0 
0 
0 
0 
0 
0 
0 
0 
0 
0 
0 
0 
0 
0 
0 
0 
0 
0 
0 
0 
0 
0 
0 
0 
0 
0 
0 
0 
0 
0 
0 
0 
0 
0 
0 
0 
0 
0 
0 
0 
0 
0 
0 
0 
0 
0 
0 
0 
0 
0 
0 
0 
0 
0 
0 
0 
0 
0 
0 
0 
0 
0 
0 
0 
0 
0 
0 
0 
0 
0 
0 
0 
0 
0 
0 
0 
0 
0 
0 
0 
0 
0 
0 
0 
0 
0 
0 
0 
0 
0 
0 
0 
0 
0 
0 
0 
0 
0 
0 
0 
0 
0 
0 
0 
0 
0 
0 
0 
0 
0 
0 
0 
0 
0 
0 
0 
0 
0 
0 
0 
0 
0 
0 
0 
0 
0 
0 
0 
0 
0 
0 
0 
0 
0 
0 
0 
0 
0 
0 
0 
0 
0 
0 
0 
0 
0 
0 
0 
0 
0 
0 
0 
0 
0 
0 
0 
0 
0 
0 
0 
0 
0 
0 
0 
0 
0 
0 
0 
0 
0 
0 
0 
0 
0 
0 
0 
0 
0 
0 
0 
0 
0 
0 
0 
0 
0 
0 
0 
0 
0 
0 
0 
0 
0 
0 
0 
0 
0 
0 
0 
0 
0 
0 
0 
0 
0 
0 
0 
0 
0 
0 
0 
0 
0 
0 
0 
0 
0 
0 
0 
0 
0 
0 
0 
0 
0 
0 
0 
0.3364067749 
0.5657637716 
0.5809981609 
0.5666048932 
0.5679917467 
0.5726940488 
0.5819891057 
0.3163183796 
0.3201283887 
0.3265016811 
0.3448666532 
0.3382325821 
0.3364255972 
0.4553204443 
0.473154256 
0.4670055479 
0.4721500202 
0.4524765031 
0.4591062779 
0.4684296164 
0.4396192268 
0.3041710548 
0.4477577675 
0.3192604413 
0.460800667 
0.4446422988 
0.4616221086 
0.4309268419 
0.4305780853 
0.4471798817 
0.4316369729 
0.349395175 
0.4316400898 
0.4259295434 
0.4329019617 
0.4205678641 
0.3168625954 
0.4434931829 
0.4397810319 
0.4342571821 
0.5667131649 
0.5650959846 
0.5637199041 
0.568701456 
0.5852602493 
0.5715566383 
0.500598514 
0.5017353023 
0.2839851396 
0.5230117916 
0.5041614122 
0.5057128612 
0.5088690308 
0.3479272047 
0.4817788053 
0.3511587407 
0.4795764544 
0.4632174773 
0.3549750554 
0.4650958255 
0.478056988 
0.4827953671 
0.4696546596 
0.3731880217 
0.3740101855 
0.3783625505 
0.3933276842 
0.3777359416 
0.4780635032 
0.4570373107 
0.4640752218 
0.4830456003 
0.489437107 
0.4585494467 
0.4689419686 
0.4606298246 
0.4212980561 
0.4644645028 
0.4302001118 
0.4275205614 
0.4116721255 
0.3758446021 
0.4291639882 
0.3939746436 
0.4326288379 
0.4037430188 
0.424715963 
0.40130535 
0.418473595 
0.391536374 
0.4187439139 
0.4329285865 
0.417099965 
0.414689145 
0.4300523501 
0.4399991804 
0.4358429635 
0.4014917974 
0.456110428 
0.4523500108 
0.444401338 
0.4547222886 
0.4549133481 
0.454446099 
0.4540383202 
0.5043896806 
0.5058259982 
0.505707032 
0.5053176391 
0.5111736327 
0.5027861719 
0.4763267937 
0.448245842 
0.493817252 
0.4959757344 
0.5017464934 
0.482533203 
0.4984010117 
0.3648830402 
0.3774230619 
0.3841469406 
0.3780959617 
0.3752756017 
0.3764470475 
0.5423109077 
0.5667035975 
0.5662953227 
0.5520530219 
0.5740117175 
0.5762010015 
0.5548070877 
0.5672072895 
0.5927842907 
0.580011248 
0.5641415251 
0.4104821773 
0.4373253691 
0.4285815478 
0.3979041703 
0.4421623348 
0.4186143872 
0.4274694054 
0.4192338308 
0.5308379759 
0.2913205113 
0.5339624891 
0.5400880705 
0.5586881845 
0.5404684788 
0.533749851 
0.3901143653 
0.3946133342 
0.3961673255 
0.3940715564 
0.4106921743 
0.4248852045 
0.3966040993 
0.4194184383 
0.3225580922 
0.3236626468 
0.3188347052 
0.3283438038 
0.3252083991 
0.4645893191 
0.4694999197 
0.4516745368 
0.4523186092 
0.5482983335 
0.5336693235 
0.5353361438 
0.5241548685 
0.5545256885 
0.5452471249 
0.5812860629 
0.5624224521 
0.5854303574 
0.5656761199 
0.5567936683 
0.5665023214 
0.5680919917 
0.4993243223 
0.5051022991 
0.4786133781 
0.5059404485 
0.3707665207 
0.4012155483 
0.3913390361 
0.3746379272 
0.3903061781 
0.3357682012 
0.3222003237 
0.3202087139 
0.328690011 
0.356976625 
0.3729670209 
0.3678554905 
0.3574042153 
0.3632497899 
0.3483460303 
0.3558292377 
0.3617133052 
0.350264167 
0.3468098185 
0.5531449653 
0.53229751 
0.5392089029 
0.5376406149 
0.3804708136 
0.5466883762 
0.5450569588 
0.4466652437 
0.3686627137 
0.3858477696 
0.3828883251 
0.5801363206 
0.3779986035 
0.4015030602 
0.5529708722 
0.5528565733 
0.5460709003 
0.551467851 
0.5585379849 
0.5400465727 
0.3842075388 
0.3474613442 
0.3446245596 
0.3439637319 
0.3422889131 
0.3685050112 
0.572046557 
0.5585012166 
0.5998892529 
0.5602767941 
0.5705047059 
0.5734184204 
0.5636742622 
0.581190809 
0.5876977532 
0.5854705179 
0.5914021663 
0.5834798501 
0.5781987943 
0.5725410482 
0.5886401627 
0.5787835313 
0.587048901 
0.4026035708 
0.3044349745 
0.3102348621 
0.3192454379 
0.2972708173 
0.2967832207 
0.2902123424 
0.4985140561 
0.5138226645 
0.4945368639 
0.5068292658 
0.3663187453 
0.4987103422 
0.5129546518 
0.5074438889 
0.3855418043 
0.4930265587 
0.5088273294 
0.5126859289 
0.4913466437 
0.4917238746 
0.5240166899 
0.356583076 
0.4903095748 
0.4941841744 
0.3202411201 
0.5052256499 
0.4987787295 
0.5149278093 
0.4927862628 
0.476864019 
0.4827564189 
0.5023634249 
0.5063365058 
0.3112584493 
0.3283931802 
0.3227877493 
0.3212955608 
0.3195904135 
0.3130905899 
0.3189185217 
0.3101855227 
0.3360490922 
0.3259913787 
0.3246228355 
0.335699103 
0.3179620472 
0.5741487001 
0.5728061314 
0.5803701215 
0.573705199 
0.3829210577 
0.5739076721 
0.5809834588 
0.5664485287 
0.5689769557 
0.3334369837 
0.3209615992 
0.3298597228 
0.3388665172 
0.3163159721 
0.3157891106 
0.3276562426 
0.330289981 
0.4843823421 
0.4941577259 
0.4843324658 
0.484305643 
0.4866182145 
0.4871291281 
0.3983455796 
0.3914177118 
0.3446560805 
0.3320313076 
0.3463688835 
0.5720067168 
0.3408279447 
0.3231915759 
0.4866600838 
0.5936332413 
0.4582798544 
0.4724893436 
0.4763927055 
0.4872187722 
0.4979120828 
0.4001860136 
0.3782328544 
0.4030988391 
0.4037207296 
0.390210745 
0.4107895406 
0.3775168435 
0.4430509641 
0.4590217224 
0.4578462419 
0.4181908649 
0.4361887454 
0.4433589053 
0.4429645966 
0.4553796432 
0.425649945 
0.4271318556 
0.411531435 
0.448098241 
0.3285874546 
0.4380637315 
0.4441159325 
0.4658709546 
0.4414290676 
0.4564835537 
0.3741779426 
0.4114217219 
0.3798436847 
0.3578413055 
0.3555120709 
0.384677958 
0.3674727343 
0.3805161594 
0.3670852303 
0.3717835531 
0.3599057515 
0.3780315403 
0.4667838083 
0.4903921517 
0.4872567974 
0.472378212 
0.4798023542 
0.4917192028 
0.4711612408 
0.5671042076 
0.5561138743 
0.514684002 
0.4875638608 
0.5147688712 
0.519098003 
0.4778490143 
0.4990097978 
0.5119565086 
0.5946193882 
0.3743240421 
0.3996301314 
0.3874715913 
0.4590118487 
0.3899476888 
0.3796091193 
0.4052677004 
0.375967559 
0.3842410404 
0.3837417459 
0.5362426369 
0.5219725171 
0.5358215317 
0.5903487636 
0.5157383029 
0.5296283051 
0.5409357033 
0.3508706447 
0.3238813244 
0.3122239402 
0.4737100343 
0.3181680761 
0.3143312133 
0.5974452604 
0.3119223224 
0.5272197044 
0.4754019191 
0.5634200546 
0.5677929073 
0.5769762206 
0.3831081549 
0.5790198219 
0.5643731472 
0.2975364828 
0.5662036759 
0.5618599528 
0.4629867307 
0.4643947691 
0.4451701385 
0.4739790284 
0.3926343954 
0.4698281215 
0.470510838 
0.4638105764 
0.5611444302 
0.5462179035 
0.5504317685 
0.5694571409 
0.5742404271 
0.5765407326 
0.5831189599 
0.5829009492 
0.5384431892 
0.5861749777 
0.5477355738 
0.5850769253 
0.5111014905 
0.5363233981 
0.5119637388 
0.5425173734 
0.5465028412 
0.5399257312 
0.5313185021 
0.5610032521 
0.5183198539 
0.3619078936 
0.3879293285 
0.4018332585 
0.3853534803 
0.3835814895 
0.4601417843 
0.6151238184 
0.377501179 
0.3768797277 
0.3840737852 
0.3914327454 
0.3775569523 
0.3620036683 
0.3998392401 
0.3922958153 
0.5061326619 
0.5121299644 
0.5084358082 
0.5219442042 
0.5141018397 
0.4977943233 
0.3543490122 
0.3561402721 
0.3744379403 
0.372118667 
0.3655389744 
0.3611886096 
0.3749390961 
0.3826716164 
0.5624092279 
0.5757149168 
0.5935198033 
0.37872264 
0.5645814168 
0.590680834 
0.5549511752 
0.5642977489 
0.571627686 
0.5662334956 
0.5493893036 
0.5665499551 
0.5413362709 
0.572237474 
0.5358656147 
0.5461903306 
0.5493159322 
0.5470623581 
0.5368577791 
0.5236291639 
0.5265317667 
0.5375424442 
0.5053083987 
0.3142244762 
0.5041778426 
0.4993279028 
0.5437184035 
0.5367222714 
0.5312310407 
0.5264121693 
0.510372807 
0.5109974406 
0.5029258123 
0.4783012133 
0.5164643533 
0.5366464224 
0.5090093552 
0.5413079003 
0.5247784669 
0.5160511915 
0.5213888967 
0.5459413186 
0.5325470872 
0.5286353153 
0.3901482861 
0.4022211884 
0.3671724229 
0.3681906595 
0.3709344032 
0.3718833042 
0.4003302394 
0.382402844 
0.3680222861 
0.4130437484 
0.4027152048 
0.4070156423 
0.4201367473 
0.4119541803 
0.5385853259 
0.4429739863 
0.5760326225 
0.5882786402 
0.4681134495 
0.551221504 
0.5502348278 
0.3879144761 
0.4322783776 
0.5553226564 
0.4799596468 
0.3767846681 
0.3217573856 
0.3969110965 
0.4010915426 
0.3828432333 
0.3933740024 
0.3859110676 
0.3919161557 
0.3881616009 
0.5779629964 
0.5826356352 
0.5734567744 
0.5773334932 
0.5614280765 
0.5847377259 
0.5861281203 
0.5785057014 
0.3515173917 
0.364773765 
0.3877321221 
0.3761887239 
0.3467188768 
0.3706864348 
0.374237714 
0.3867479993 
0.3746556437 
0.3613913985 
0.3596154765 
0.3590391597 
0.3418338941 
0.3443068309 
0.3283515007 
0.378259119 
0.3455684126 
0.4767721317 
0.3133946517 
0.3236338008 
0.3189610993 
0.5855084272 
0.565429694 
0.5798171483 
0.5812766548 
0.5906566437 
0.5839797145 
0.5856762949 
0.5770661189 
0.5736864354 
0.5886141907 
0.3768448391 
0.3719974912 
0.3966447042 
0.375461423 
0.3713468037 
0.3857504747 
0.397639156 
0.366379097 
0.3403818098 
0.3511638272 
0.3281548652 
0.3459500643 
0.3273558841 
0.3323516743 
0.5202627457 
0.5371779891 
0.5424035604 
0.5422742052 
0.5456298058 
0.528070312 
0.5338954136 
0.5253153947 
0.3980682033 
0.400669166 
0.3901773309 
0.5551272944 
0.5656451161 
0.5567096127 
0.5560602859 
0.4800020925 
0.4693352964 
0.4503783583 
0.452063323 
0.5702417618 
0.5797582602 
0.5443494883 
0.5944755067 
0.5606620661 
0.5348715209 
0.5668767525 
0.5218189976 
0.5179600316 
0.5093301483 
0.5073743768 
0.5300575288 
0.49536416 
0.5256612219 
0.3501751367 
0.3330832003 
0.3203989355 
0.3163829896 
0.3203514041 
0.3329841411 
0.3287827957 
0.341937732 
0.485232332 
0.32884235 
0.3369396384 
0.3364956862 
0.3239120804 
0.3338173321 
0.3308916863 
0.3189730819 
0.3262313779 
0.5691035946 
0.3020550701 
0.2991913187 
0.3046868913 
0.3088787613 
0.5881548554 
0.2952761729 
0.3018673746 
0.2972804598 
0.5182730828 
0.5451459782 
0.5386507065 
0.5578070547 
0.5572384193 
0.5530316064 
0.578101672 
0.5519925585 
0.5474915125 
0.5605976852 
0.56200659 
0.3383336271 
0.3298455859 
0.3400093139 
0.3475667249 
0.324198474 
0.3468948091 
0.3422562193 
0.3376310257 
0.3521687442 
0.3373402203 
0.3668669761 
0.3590596902 
0.3735053578 
0.3630211898 
0.3509183176 
0.3420218412 
0.3165250684 
0.3465998807 
0.3479116653 
0.3026313949 
0.3076555006 
0.3094562289 
0.3314162843 
0.3022828067 
0.2918833065 
0.3276581337 
0.3261576478 
0.3642552857 
0.3463990089 
0.3527809556 
0.3433660387 
0.3343194728 
0.3696907608 
0.3549721478 
0.3416635664 
0.3560376591 
0.5272194877 
0.3574101722 
0.5876055425 
0.3450644615 
0.3794474326 
0.3537262603 
0.3183036147 
0.3351273792 
0.3229662491 
0.3253961092 
0.323343568 
0.3095467629 
0.319069215 
0.3310785938 
0.3290261273 
0.4714813284 
0.4576351621 
0.4802528144 
0.5018736846 
0.4881204285 
0.5124976723 
0.5182190843 
0.4878554692 
0.4950830026 
0.4796404461 
0.4926651895 
0.475210355 
0.4888537261 
0.4905495155 
0.4949613537 
0.5490252436 
0.4754728503 
0.5470252841 
0.5488895081 
0.5250052061 
0.5270622283 
0.5422093187 
0.491305829 
0.5492443438 
0.5410303098 
0.5357011227 
0.5224210348 
0.5478901975 
0.5498256535 
0.5519543202 
0.5413226749 
0.5262784724 
0.5289235034 
0.3495132694 
0.3242074919 
0.3270508376 
0.3677650294 
0.5879371085 
0.3476476326 
0.3580687875 
0.3463659906 
0.2940338982 
0.2969591265 
0.3055760456 
0.3062801012 
0.3049151267 
0.5924169919 
0.3034171679 
0.2942312423 
0.4347292879 
0.4262389763 
0.4133379973 
0.437293353 
0.4199064256 
0.4068386921 
0.4208492663 
0.467538886 
0.4272982137 
0.4345746341 
0.4163790232 
0.403206466 
0.4092813288 
0.4238918473 
0.4284893515 
0.4194657925 
0.5614885989 
0.4275511804 
0.4114046729 
0.4112616117 
0.4100730652 
0.4878269225 
0.4730150399 
0.4724008715 
0.4681098719 
0.4736741343 
0.4940467389 
0.3352809271 
0.3198054046 
0.3385980342 
0.3146696228 
0.3137667273 
0.3161601556 
0.3107084986 
0.5741062237 
0.5764564933 
0.5776800205 
0.592305006 
0.5668441654 
0.5918050646 
0.5669904885 
0.5657779438 
0.5597784671 
0.5927714137 
0.565380599 
0.5628373896 
0.5659078008 
0.5711893512 
0.559725016 
0.5700070367 
0.5726374705 
0.5781815467 
0.5677066242 
0.5665238537 
0.5468310758 
0.5822425039 
0.5963245136 
0.5755210829 
0.5916196409 
0.5863655194 
0.5817287766 
0.5608912379 
0.3144908334 
0.3315010327 
0.4835926836 
0.4653878268 
0.4788354729 
0.457445698 
0.4576872118 
0.4774931859 
0.4755710321 
0.3585492227 
0.3776377872 
0.3683238582 
0.3852565429 
0.3496015787 
0.392404993 
0.3500336469 
0.3631375337 
0.3566133717 
0.3406274036 
0.3851274356 
0.3688197621 
0.3576392432 
0.3531910349 
0.3402057198 
0.3395459064 
0.3129978209 
0.3274801755 
0.3207550811 
0.3386999772 
0.3492250561 
0.3424996583 
0.3243646414 
0.5121723133 
0.4970506883 
0.4832378331 
0.4854851009 
0.4922258284 
0.4783174239 
0.4978015396 
0.475543304 
0.455215148 
0.4009817408 
0.3899724148 
0.4092866651 
0.3884212217 
0.4121501095 
0.3946608803 
0.4031435543 
0.4330420552 
0.4045748606 
0.419917308 
0.4585425051 
0.4442611505 
0.4384216687 
0.4334397884 
0.4336874007 
0.4136739825 
0.4207319629 
0.460948461 
0.462658026 
0.4435483208 
0.4513017651 
0.4683277758 
0.4296307688 
0.4498703028 
0.422021087 
0.4570309131 
0.3731583134 
0.391502814 
0.380410673 
0.4104358431 
0.393184198 
0.3986866462 