# vtk DataFile Version 3.0
MOAB 4.99 (Alpha)
ASCII
DATASET UNSTRUCTURED_GRID
POINTS 3146 double
0 1 1
10 1 1
10 -1 1
0 -1 1
0 -0.8 1
0 -0.6 1
0 -0.4 1
0 -0.2 1
0 0 1
0 0.2 1
0 0.4 1
0 0.6 1
0 0.8 1
10 0.8 1
10 0.6 1
10 0.4 1
10 0.2 1
10 0 1
10 -0.2 1
10 -0.4 1
10 -0.6 1
10 -0.8 1
9.6 -1 1
9.2 -1 1
8.8 -1 1
8.4 -1 1
8 -1 1
7.6 -1 1
7.2 -1 1
6.8 -1 1
6.4 -1 1
6 -1 1
5.6 -1 1
5.2 -1 1
4.8 -1 1
4.4 -1 1
4 -1 1
3.6 -1 1
3.2 -1 1
2.8 -1 1
2.4 -1 1
2 -1 1
1.6 -1 1
1.2 -1 1
0.8 -1 1
0.4 -1 1
0.4 1 1
0.8 1 1
1.2 1 1
1.6 1 1
2 1 1
2.4 1 1
2.8 1 1
3.2 1 1
3.6 1 1
4 1 1
4.4 1 1
4.8 1 1
5.2 1 1
5.6 1 1
6 1 1
6.4 1 1
6.8 1 1
7.2 1 1
7.6 1 1
8 1 1
8.4 1 1
8.8 1 1
9.2 1 1
9.6 1 1
10 -1 -1
10 -1 0.8
10 -1 0.6
10 -1 0.4
10 -1 0.2
10 -1 0
10 -1 -0.2
10 -1 -0.4
10 -1 -0.6
10 -1 -0.8
10 1 -1
10 1 -0.8
10 1 -0.6
10 1 -0.4
10 1 -0.2
10 1 0
10 1 0.2
10 1 0.4
10 1 0.6
10 1 0.8
0 1 -1
0 -1 -1
0 0.8 -1
0 0.6 -1
0 0.4 -1
0 0.2 -1
0 0 -1
0 -0.2 -1
0 -0.4 -1
0 -0.6 -1
0 -0.8 -1
0 -1 -0.8
0 -1 -0.6
0 -1 -0.4
0 -1 -0.2
0 -1 0
0 -1 0.2
0 -1 0.4
0 -1 0.6
0 -1 0.8
0 1 0.8
0 1 0.6
0 1 0.4
0 1 0.2
0 1 0
0 1 -0.2
0 1 -0.4
0 1 -0.6
0 1 -0.8
0 0.8 -0.8
0 0.6 -0.8
0 0.4 -0.8
0 0.2 -0.8
0 1.387778781e-17 -0.8
0 -0.2 -0.8
0 -0.4 -0.8
0 -0.6 -0.8
0 -0.8 -0.8
0 0.8 -0.6
0 0.6 -0.6
0 0.4 -0.6
0 0.2 -0.6
0 2.775557562e-17 -0.6
0 -0.2 -0.6
0 -0.4 -0.6
0 -0.6 -0.6
0 -0.8 -0.6
0 0.8 -0.4
0 0.6 -0.4
0 0.4 -0.4
0 0.2 -0.4
0 -2.775557562e-17 -0.4
0 -0.2 -0.4
0 -0.4 -0.4
0 -0.6 -0.4
0 -0.8 -0.4
0 0.8 -0.2
0 0.6 -0.2
0 0.4 -0.2
0 0.2 -0.2
0 0 -0.2
0 -0.2 -0.2
0 -0.4 -0.2
0 -0.6 -0.2
0 -0.8 -0.2
0 0.8 0
0 0.6 0
0 0.4 0
0 0.2 1.110223025e-16
0 0 0
0 -0.2 0
0 -0.4 0
0 -0.6 0
0 -0.8 1.110223025e-16
0 0.8 0.2
0 0.6 0.2
0 0.4 0.2
0 0.2 0.2
0 0 0.2
0 -0.2 0.2
0 -0.4 0.2
0 -0.6 0.2
0 -0.8 0.2
0 0.8 0.4
0 0.6 0.4
0 0.4 0.4
0 0.2 0.4
0 0 0.4
0 -0.2 0.4
0 -0.4 0.4
0 -0.6 0.4
0 -0.8 0.4
0 0.8 0.6
0 0.6 0.6
0 0.4 0.6
0 0.2 0.6
0 0 0.6
0 -0.2 0.6
0 -0.4 0.6
0 -0.6 0.6
0 -0.8 0.6
0 0.8 0.8
0 0.6 0.8
0 0.4 0.8
0 0.2 0.8
0 0 0.8
0 -0.2 0.8
0 -0.4 0.8
0 -0.6 0.8
0 -0.8 0.8
0.4 -1 -1
0.8 -1 -1
1.2 -1 -1
1.6 -1 -1
2 -1 -1
2.4 -1 -1
2.8 -1 -1
3.2 -1 -1
3.6 -1 -1
4 -1 -1
4.4 -1 -1
4.8 -1 -1
5.2 -1 -1
5.6 -1 -1
6 -1 -1
6.4 -1 -1
6.8 -1 -1
7.2 -1 -1
7.6 -1 -1
8 -1 -1
8.4 -1 -1
8.8 -1 -1
9.2 -1 -1
9.6 -1 -1
0.4 -1 0.8
0.4 -1 0.6
0.4 -1 0.4
0.4 -1 0.2
0.4 -1 -1.734723476e-17
0.4 -1 -0.2
0.4 -1 -0.4
0.4 -1 -0.6
0.4 -1 -0.8
0.8 -1 0.8
0.8 -1 0.6
0.8 -1 0.4
0.8 -1 0.2
0.8 -1 2.081668171e-17
0.8 -1 -0.2
0.8 -1 -0.4
0.8 -1 -0.6
0.8 -1 -0.8
1.2 -1 0.8
1.2 -1 0.6
1.2 -1 0.4
1.2 -1 0.2
1.2 -1 0
1.2 -1 -0.2
1.2 -1 -0.4
1.2 -1 -0.6
1.2 -1 -0.8
1.6 -1 0.8
1.6 -1 0.6
1.6 -1 0.4
1.6 -1 0.2
1.6 -1 -1.387778781e-17
1.6 -1 -0.2
1.6 -1 -0.4
1.6 -1 -0.6
1.6 -1 -0.8
2 -1 0.8
2 -1 0.6
2 -1 0.4
2 -1 0.2
2 -1 2.775557562e-17
2 -1 -0.2
2 -1 -0.4
2 -1 -0.6
2 -1 -0.8
2.4 -1 0.8
2.4 -1 0.6
2.4 -1 0.4
2.4 -1 0.2
2.4 -1 0
2.4 -1 -0.2
2.4 -1 -0.4
2.4 -1 -0.6
2.4 -1 -0.8
2.8 -1 0.8
2.8 -1 0.6
2.8 -1 0.4
2.8 -1 0.2
2.8 -1 0
2.8 -1 -0.2
2.8 -1 -0.4
2.8 -1 -0.6
2.8 -1 -0.8
3.2 -1 0.8
3.2 -1 0.6
3.2 -1 0.4
3.2 -1 0.2
3.2 -1 -2.775557562e-17
3.2 -1 -0.2
3.2 -1 -0.4
3.2 -1 -0.6
3.2 -1 -0.8
3.6 -1 0.8
3.6 -1 0.6
3.6 -1 0.4
3.6 -1 0.2
3.6 -1 0
3.6 -1 -0.2
3.6 -1 -0.4
3.6 -1 -0.6
3.6 -1 -0.8
4 -1 0.8
4 -1 0.6
4 -1 0.4
4 -1 0.2
4 -1 0
4 -1 -0.2
4 -1 -0.4
4 -1 -0.6
4 -1 -0.8
4.4 -1 0.8
4.4 -1 0.6
4.4 -1 0.4
4.4 -1 0.2
4.4 -1 2.775557562e-17
4.4 -1 -0.2
4.4 -1 -0.4
4.4 -1 -0.6
4.4 -1 -0.8
4.8 -1 0.8
4.8 -1 0.6
4.8 -1 0.4
4.8 -1 0.2
4.8 -1 0
4.8 -1 -0.2
4.8 -1 -0.4
4.8 -1 -0.6
4.8 -1 -0.8
5.2 -1 0.8
5.2 -1 0.6
5.2 -1 0.4
5.2 -1 0.2
5.2 -1 0
5.2 -1 -0.2
5.2 -1 -0.4
5.2 -1 -0.6
5.2 -1 -0.8
5.6 -1 0.8
5.6 -1 0.6
5.6 -1 0.4
5.6 -1 0.2
5.6 -1 0
5.6 -1 -0.2
5.6 -1 -0.4
5.6 -1 -0.6
5.6 -1 -0.8
6 -1 0.8
6 -1 0.6
6 -1 0.4
6 -1 0.2
6 -1 0
6 -1 -0.2
6 -1 -0.4
6 -1 -0.6
6 -1 -0.8
6.4 -1 0.8
6.4 -1 0.6
6.4 -1 0.4
6.4 -1 0.2
6.4 -1 0
6.4 -1 -0.2
6.4 -1 -0.4
6.4 -1 -0.6
6.4 -1 -0.8
6.8 -1 0.8
6.8 -1 0.6
6.8 -1 0.4
6.8 -1 0.2
6.8 -1 0
6.8 -1 -0.2
6.8 -1 -0.4
6.8 -1 -0.6
6.8 -1 -0.8
7.2 -1 0.8
7.2 -1 0.6
7.2 -1 0.4
7.2 -1 0.2
7.2 -1 0
7.2 -1 -0.2
7.2 -1 -0.4
7.2 -1 -0.6
7.2 -1 -0.8
7.6 -1 0.8
7.6 -1 0.6
7.6 -1 0.4
7.6 -1 0.2
7.6 -1 0
7.6 -1 -0.2
7.6 -1 -0.4
7.6 -1 -0.6
7.6 -1 -0.8
8 -1 0.8
8 -1 0.6
8 -1 0.4
8 -1 0.2
8 -1 0
8 -1 -0.2
8 -1 -0.4
8 -1 -0.6
8 -1 -0.8
8.4 -1 0.8
8.4 -1 0.6
8.4 -1 0.4
8.4 -1 0.2
8.4 -1 0
8.4 -1 -0.2
8.4 -1 -0.4
8.4 -1 -0.6
8.4 -1 -0.8
8.8 -1 0.8
8.8 -1 0.6
8.8 -1 0.4
8.8 -1 0.2
8.8 -1 0
8.8 -1 -0.2
8.8 -1 -0.4
8.8 -1 -0.6
8.8 -1 -0.8
9.2 -1 0.8
9.2 -1 0.6
9.2 -1 0.4
9.2 -1 0.2
9.2 -1 0
9.2 -1 -0.2
9.2 -1 -0.4
9.2 -1 -0.6
9.2 -1 -0.8
9.6 -1 0.8
9.6 -1 0.6
9.6 -1 0.4
9.6 -1 0.2
9.6 -1 0
9.6 -1 -0.2
9.6 -1 -0.4
9.6 -1 -0.6
9.6 -1 -0.8
9.6 1 -1
9.2 1 -1
8.8 1 -1
8.4 1 -1
8 1 -1
7.6 1 -1
7.2 1 -1
6.8 1 -1
6.4 1 -1
6 1 -1
5.6 1 -1
5.2 1 -1
4.8 1 -1
4.4 1 -1
4 1 -1
3.6 1 -1
3.2 1 -1
2.8 1 -1
2.4 1 -1
2 1 -1
1.6 1 -1
1.2 1 -1
0.8 1 -1
0.4 1 -1
10 -0.8 -1
10 -0.6 -1
10 -0.4 -1
10 -0.2 -1
10 0 -1
10 0.2 -1
10 0.4 -1
10 0.6 -1
10 0.8 -1
0.4 -0.8 -1
0.4 -0.6 -1
0.4 -0.4 -1
0.4 -0.2 -1
0.4 1.734723476e-17 -1
0.4 0.2 -1
0.4 0.4 -1
0.4 0.6 -1
0.4 0.8 -1
0.8 -0.8 -1
0.8 -0.6 -1
0.8 -0.4 -1
0.8 -0.2 -1
0.8 -2.081668171e-17 -1
0.8 0.2 -1
0.8 0.4 -1
0.8 0.6 -1
0.8 0.8 -1
1.2 -0.8 -1
1.2 -0.6 -1
1.2 -0.4 -1
1.2 -0.2 -1
1.2 0 -1
1.2 0.2 -1
1.2 0.4 -1
1.2 0.6 -1
1.2 0.8 -1
1.6 -0.8 -1
1.6 -0.6 -1
1.6 -0.4 -1
1.6 -0.2 -1
1.6 1.387778781e-17 -1
1.6 0.2 -1
1.6 0.4 -1
1.6 0.6 -1
1.6 0.8 -1
2 -0.8 -1
2 -0.6 -1
2 -0.4 -1
2 -0.2 -1
2 -2.775557562e-17 -1
2 0.2 -1
2 0.4 -1
2 0.6 -1
2 0.8 -1
2.4 -0.8 -1
2.4 -0.6 -1
2.4 -0.4 -1
2.4 -0.2 -1
2.4 0 -1
2.4 0.2 -1
2.4 0.4 -1
2.4 0.6 -1
2.4 0.8 -1
2.8 -0.8 -1
2.8 -0.6 -1
2.8 -0.4 -1
2.8 -0.2 -1
2.8 0 -1
2.8 0.2 -1
2.8 0.4 -1
2.8 0.6 -1
2.8 0.8 -1
3.2 -0.8 -1
3.2 -0.6 -1
3.2 -0.4 -1
3.2 -0.2 -1
3.2 2.775557562e-17 -1
3.2 0.2 -1
3.2 0.4 -1
3.2 0.6 -1
3.2 0.8 -1
3.6 -0.8 -1
3.6 -0.6 -1
3.6 -0.4 -1
3.6 -0.2 -1
3.6 0 -1
3.6 0.2 -1
3.6 0.4 -1
3.6 0.6 -1
3.6 0.8 -1
4 -0.8 -1
4 -0.6 -1
4 -0.4 -1
4 -0.2 -1
4 0 -1
4 0.2 -1
4 0.4 -1
4 0.6 -1
4 0.8 -1
4.4 -0.8 -1
4.4 -0.6 -1
4.4 -0.4 -1
4.4 -0.2 -1
4.4 -2.775557562e-17 -1
4.4 0.2 -1
4.4 0.4 -1
4.4 0.6 -1
4.4 0.8 -1
4.8 -0.8 -1
4.8 -0.6 -1
4.8 -0.4 -1
4.8 -0.2 -1
4.8 0 -1
4.8 0.2 -1
4.8 0.4 -1
4.8 0.6 -1
4.8 0.8 -1
5.2 -0.8 -1
5.2 -0.6 -1
5.2 -0.4 -1
5.2 -0.2 -1
5.2 0 -1
5.2 0.2 -1
5.2 0.4 -1
5.2 0.6 -1
5.2 0.8 -1
5.6 -0.8 -1
5.6 -0.6 -1
5.6 -0.4 -1
5.6 -0.2 -1
5.6 0 -1
5.6 0.2 -1
5.6 0.4 -1
5.6 0.6 -1
5.6 0.8 -1
6 -0.8 -1
6 -0.6 -1
6 -0.4 -1
6 -0.2 -1
6 0 -1
6 0.2 -1
6 0.4 -1
6 0.6 -1
6 0.8 -1
6.4 -0.8 -1
6.4 -0.6 -1
6.4 -0.4 -1
6.4 -0.2 -1
6.4 0 -1
6.4 0.2 -1
6.4 0.4 -1
6.4 0.6 -1
6.4 0.8 -1
6.8 -0.8 -1
6.8 -0.6 -1
6.8 -0.4 -1
6.8 -0.2 -1
6.8 0 -1
6.8 0.2 -1
6.8 0.4 -1
6.8 0.6 -1
6.8 0.8 -1
7.2 -0.8 -1
7.2 -0.6 -1
7.2 -0.4 -1
7.2 -0.2 -1
7.2 0 -1
7.2 0.2 -1
7.2 0.4 -1
7.2 0.6 -1
7.2 0.8 -1
7.6 -0.8 -1
7.6 -0.6 -1
7.6 -0.4 -1
7.6 -0.2 -1
7.6 0 -1
7.6 0.2 -1
7.6 0.4 -1
7.6 0.6 -1
7.6 0.8 -1
8 -0.8 -1
8 -0.6 -1
8 -0.4 -1
8 -0.2 -1
8 0 -1
8 0.2 -1
8 0.4 -1
8 0.6 -1
8 0.8 -1
8.4 -0.8 -1
8.4 -0.6 -1
8.4 -0.4 -1
8.4 -0.2 -1
8.4 0 -1
8.4 0.2 -1
8.4 0.4 -1
8.4 0.6 -1
8.4 0.8 -1
8.8 -0.8 -1
8.8 -0.6 -1
8.8 -0.4 -1
8.8 -0.2 -1
8.8 0 -1
8.8 0.2 -1
8.8 0.4 -1
8.8 0.6 -1
8.8 0.8 -1
9.2 -0.8 -1
9.2 -0.6 -1
9.2 -0.4 -1
9.2 -0.2 -1
9.2 0 -1
9.2 0.2 -1
9.2 0.4 -1
9.2 0.6 -1
9.2 0.8 -1
9.6 -0.8 -1
9.6 -0.6 -1
9.6 -0.4 -1
9.6 -0.2 -1
9.6 0 -1
9.6 0.2 -1
9.6 0.4 -1
9.6 0.6 -1
9.6 0.8 -1
10 -0.8 0.8
10 -0.8 0.6
10 -0.8 0.4
10 -0.8 0.2
10 -0.8 1.387778781e-17
10 -0.8 -0.2
10 -0.8 -0.4
10 -0.8 -0.6
10 -0.8 -0.8
10 -0.6 0.8
10 -0.6 0.6
10 -0.6 0.4
10 -0.6 0.2
10 -0.6 2.775557562e-17
10 -0.6 -0.2
10 -0.6 -0.4
10 -0.6 -0.6
10 -0.6 -0.8
10 -0.4 0.8
10 -0.4 0.6
10 -0.4 0.4
10 -0.4 0.2
10 -0.4 -2.775557562e-17
10 -0.4 -0.2
10 -0.4 -0.4
10 -0.4 -0.6
10 -0.4 -0.8
10 -0.2 0.8
10 -0.2 0.6
10 -0.2 0.4
10 -0.2 0.2
10 -0.2 0
10 -0.2 -0.2
10 -0.2 -0.4
10 -0.2 -0.6
10 -0.2 -0.8
10 0 0.8
10 0 0.6
10 0 0.4
10 0 0.2
10 0 0
10 0 -0.2
10 0 -0.4
10 0 -0.6
10 0 -0.8
10 0.2 0.8
10 0.2 0.6
10 0.2 0.4
10 0.2 0.2
10 0.2 0
10 0.2 -0.2
10 0.2 -0.4
10 0.2 -0.6
10 0.2 -0.8
10 0.4 0.8
10 0.4 0.6
10 0.4 0.4
10 0.4 0.2
10 0.4 0
10 0.4 -0.2
10 0.4 -0.4
10 0.4 -0.6
10 0.4 -0.8
10 0.6 0.8
10 0.6 0.6
10 0.6 0.4
10 0.6 0.2
10 0.6 0
10 0.6 -0.2
10 0.6 -0.4
10 0.6 -0.6
10 0.6 -0.8
10 0.8 0.8
10 0.8 0.6
10 0.8 0.4
10 0.8 0.2
10 0.8 0
10 0.8 -0.2
10 0.8 -0.4
10 0.8 -0.6
10 0.8 -0.8
0.4 0.8 1
0.4 0.6 1
0.4 0.4 1
0.4 0.2 1
0.4 -1.734723476e-17 1
0.4 -0.2 1
0.4 -0.4 1
0.4 -0.6 1
0.4 -0.8 1
0.8 0.8 1
0.8 0.6 1
0.8 0.4 1
0.8 0.2 1
0.8 2.081668171e-17 1
0.8 -0.2 1
0.8 -0.4 1
0.8 -0.6 1
0.8 -0.8 1
1.2 0.8 1
1.2 0.6 1
1.2 0.4 1
1.2 0.2 1
1.2 0 1
1.2 -0.2 1
1.2 -0.4 1
1.2 -0.6 1
1.2 -0.8 1
1.6 0.8 1
1.6 0.6 1
1.6 0.4 1
1.6 0.2 1
1.6 -1.387778781e-17 1
1.6 -0.2 1
1.6 -0.4 1
1.6 -0.6 1
1.6 -0.8 1
2 0.8 1
2 0.6 1
2 0.4 1
2 0.2 1
2 2.775557562e-17 1
2 -0.2 1
2 -0.4 1
2 -0.6 1
2 -0.8 1
2.4 0.8 1
2.4 0.6 1
2.4 0.4 1
2.4 0.2 1
2.4 0 1
2.4 -0.2 1
2.4 -0.4 1
2.4 -0.6 1
2.4 -0.8 1
2.8 0.8 1
2.8 0.6 1
2.8 0.4 1
2.8 0.2 1
2.8 0 1
2.8 -0.2 1
2.8 -0.4 1
2.8 -0.6 1
2.8 -0.8 1
3.2 0.8 1
3.2 0.6 1
3.2 0.4 1
3.2 0.2 1
3.2 -2.775557562e-17 1
3.2 -0.2 1
3.2 -0.4 1
3.2 -0.6 1
3.2 -0.8 1
3.6 0.8 1
3.6 0.6 1
3.6 0.4 1
3.6 0.2 1
3.6 0 1
3.6 -0.2 1
3.6 -0.4 1
3.6 -0.6 1
3.6 -0.8 1
4 0.8 1
4 0.6 1
4 0.4 1
4 0.2 1
4 0 1
4 -0.2 1
4 -0.4 1
4 -0.6 1
4 -0.8 1
4.4 0.8 1
4.4 0.6 1
4.4 0.4 1
4.4 0.2 1
4.4 2.775557562e-17 1
4.4 -0.2 1
4.4 -0.4 1
4.4 -0.6 1
4.4 -0.8 1
4.8 0.8 1
4.8 0.6 1
4.8 0.4 1
4.8 0.2 1
4.8 0 1
4.8 -0.2 1
4.8 -0.4 1
4.8 -0.6 1
4.8 -0.8 1
5.2 0.8 1
5.2 0.6 1
5.2 0.4 1
5.2 0.2 1
5.2 0 1
5.2 -0.2 1
5.2 -0.4 1
5.2 -0.6 1
5.2 -0.8 1
5.6 0.8 1
5.6 0.6 1
5.6 0.4 1
5.6 0.2 1
5.6 0 1
5.6 -0.2 1
5.6 -0.4 1
5.6 -0.6 1
5.6 -0.8 1
6 0.8 1
6 0.6 1
6 0.4 1
6 0.2 1
6 0 1
6 -0.2 1
6 -0.4 1
6 -0.6 1
6 -0.8 1
6.4 0.8 1
6.4 0.6 1
6.4 0.4 1
6.4 0.2 1
6.4 0 1
6.4 -0.2 1
6.4 -0.4 1
6.4 -0.6 1
6.4 -0.8 1
6.8 0.8 1
6.8 0.6 1
6.8 0.4 1
6.8 0.2 1
6.8 0 1
6.8 -0.2 1
6.8 -0.4 1
[...]
POINT_DATA 3146
SCALARS KDE_TALLY_TAG double 1
LOOKUP_TABLE default
0.36526832 
0.1154163693 
0.1180136582 
0.3666601513 
0.3629725165 
0.3637774953 
0.3629464896 
0.3621104124 
0.3588325224 
0.3589162763 
0.3620451989 
0.3662536275 
0.3653877796 
0.1150918829 
0.1156853958 
0.1135222132 
0.1158052752 
0.1136288132 
0.1146517364 
0.1148393011 
0.1152637149 
0.1151225277 
0.1236996737 
0.1317090584 
0.1371453992 
0.1467128955 
0.1561835218 
0.1675041902 
0.1768038491 
0.1878938116 
0.1964654927 
0.2140568466 
0.2196453437 
0.2299806737 
0.2449269748 
0.2580431234 
0.2722369291 
0.2857264518 
0.2926037878 
0.3073994666 
0.3149301021 
0.3259688961 
0.3348972342 
0.3381562451 
0.3520428903 
0.3556432154 
0.3618564659 
0.3484086113 
0.3483446387 
0.3377689553 
0.3266880012 
0.3157132387 
0.3069956285 
0.293369057 
0.2813764433 
0.2698055508 
0.2566089891 
0.243385952 
0.2330929089 
0.2203003467 
0.2098461071 
0.2001217045 
0.1866561148 
0.1765971827 
0.1656920443 
0.1565654787 
0.1493306411 
0.138370037 
0.1300799032 
0.120736229 
0.1133344363 
0.1153051116 
0.1130949662 
0.1147673388 
0.1178803504 
0.1153850265 
0.1161572326 
0.1168812789 
0.1139476124 
0.1148065138 
0.1161347319 
0.1150117018 
0.1141094855 
0.114095516 
0.114464595 
0.115503315 
0.1162222653 
0.1129161546 
0.1167026569 
0.1149183683 
0.355531193 
0.3719145576 
0.3606948057 
0.36575531 
0.3594726856 
0.3647841873 
0.3606173284 
0.3617623171 
0.3614610197 
0.3602878094 
0.3637810403 
0.3630273889 
0.3593623189 
0.3663065394 
0.3639904702 
0.3641424238 
0.3603411932 
0.3616042068 
0.3626662543 
0.358175533 
0.3626258411 
0.3652405424 
0.3589263803 
0.3685892702 
0.3570312145 
0.3673514122 
0.3669109016 
0.3620492628 
0.3665754445 
0.3612127545 
0.364743156 
0.3628321891 
0.3599782611 
0.3596859973 
0.3652626225 
0.3611809917 
0.3644936326 
0.358957411 
0.3604168595 
0.3635269891 
0.3601463928 
0.3597593772 
0.3626846115 
0.3660908261 
0.3639024066 
0.3666221268 
0.3624124535 
0.3616939503 
0.3593763243 
0.360493241 
0.3603329746 
0.3591377594 
0.363111011 
0.363489703 
0.3665556985 
0.3626193942 
0.3657718893 
0.3629016662 
0.3645099444 
0.3656514584 
0.3634742992 
0.3645352179 
0.3620232876 
0.3582971056 
0.3625403231 
0.3627141979 
0.3649736354 
0.3611712402 
0.3613617119 
0.3609974397 
0.3606329066 
0.3645950143 
0.3590650902 
0.3624880482 
0.3669349462 
0.3595266318 
0.361001572 
0.3619410142 
0.3636062936 
0.3658017843 
0.3586475977 
0.3680733436 
0.3585681829 
0.3611663366 
0.3597323021 
0.3684509872 
0.357515231 
0.3683822104 
0.3692049123 
0.3664322151 
0.3626285288 
0.3624540502 
0.3676880348 
0.3644207503 
0.3619245931 
0.3577205172 
0.3571299639 
0.3656453089 
0.3641400397 
0.3564919855 
0.3635441116 
0.3577556276 
0.3595042568 
0.3661624728 
0.3670066284 
0.3628173863 
0.3599772634 
0.3607607742 
0.3652000994 
0.359675821 
0.3586101667 
0.356302544 
0.3486466144 
0.3380739947 
0.3238604113 
0.3150759778 
0.3040107201 
0.2940666289 
0.2843546577 
0.273282983 
0.2594159268 
0.2427387701 
0.2344938664 
0.219954519 
0.2139944376 
0.1965348761 
0.1867950091 
0.1776833689 
0.1656027077 
0.1562626846 
0.1489147408 
0.135292866 
0.1249035321 
0.1214635091 
0.3584278386 
0.356070972 
0.3568221766 
0.3552060225 
0.3612685858 
0.3562473746 
0.3633978465 
0.3597701375 
0.3660119585 
0.3539930209 
0.3559982559 
0.358549585 
0.3534001021 
0.3547920121 
0.3521223316 
0.3530249691 
0.3591138606 
0.3574692417 
0.3499250207 
0.3439373116 
0.3462235096 
0.3421704625 
0.3473370083 
0.3480639613 
0.3450386779 
0.341655065 
0.3478256393 
0.3317318478 
0.3362887271 
0.3338788416 
0.3415906857 
0.3384081149 
0.3362114161 
0.3366880415 
0.3421050356 
0.3383290012 
0.3246876218 
0.3245900304 
0.3314602211 
0.3288359717 
0.3305114838 
0.3244909132 
0.3269702637 
0.3259219884 
0.3254044547 
0.3207383575 
0.3117793264 
0.3149879679 
0.3163056375 
0.3157832319 
0.3144751801 
0.3195907647 
0.3163351564 
0.3188551843 
0.3049620782 
0.3009859075 
0.3053215145 
0.3099710446 
0.3063141163 
0.3030219333 
0.3069223475 
0.311207491 
0.3059464537 
0.2886979781 
0.290000086 
0.2965799152 
0.2929827396 
0.2929060982 
0.3002826446 
0.2959952182 
0.2931518084 
0.2965405283 
0.2811680029 
0.2797938833 
0.2859726504 
0.2833840186 
0.2810956159 
0.2896678361 
0.2816193706 
0.2846760388 
0.283659243 
0.2696251314 
0.2665934374 
0.2680749723 
0.264019872 
0.2668509018 
0.2707823966 
0.2655742932 
0.2691582514 
0.2715880955 
0.2566123364 
0.2592690274 
0.2577843562 
0.2574640776 
0.2618009633 
0.2593535423 
0.2539123372 
0.2564188853 
0.2579062489 
0.2463881642 
0.2458673805 
0.2455072279 
0.2463753437 
0.2443949598 
0.2455531667 
0.2480504062 
0.2487121369 
0.2430741319 
0.2330868057 
0.2349042962 
0.2345611741 
0.2351729393 
0.2345022966 
0.2314401946 
0.2304283667 
0.2289152672 
0.2312222911 
0.2235672934 
0.2194570125 
0.2175833156 
0.2193456292 
0.2230788454 
0.2227307419 
0.2202954325 
0.2162152499 
0.2228818792 
0.2090470241 
0.2071847628 
0.2125948474 
0.2121945133 
0.2095533613 
0.2075238847 
0.2126354856 
0.2092247173 
0.2074090099 
0.1975687151 
0.1965479464 
0.1975733225 
0.1987050952 
0.1986613937 
0.1977949611 
0.1954935082 
0.1965696872 
0.1955871294 
0.1865596118 
0.1888943476 
0.1855863696 
0.1889545788 
0.1874737904 
0.1843411949 
0.187026296 
0.1889000431 
0.1855007765 
0.1776213845 
0.1778890231 
0.1755068836 
0.1783565607 
0.1764648023 
0.1742592185 
0.1764661778 
0.1711568822 
0.1721833085 
0.1656473195 
0.1653010059 
0.165366369 
0.1664623168 
0.1655058881 
0.1668052576 
0.1655245911 
0.1674555332 
0.1679131436 
0.1544799233 
0.1560737371 
0.1581444053 
0.1556126945 
0.1579309751 
0.159539471 
0.1553324174 
0.1554358983 
0.1569602861 
0.1468204016 
0.1461403172 
0.1478158642 
0.1466352477 
0.1446837377 
0.1501574894 
0.1456307368 
0.148058428 
0.1452126267 
0.1388992685 
0.137534113 
0.1391476831 
0.137466078 
0.1384263532 
0.139583128 
0.1355281439 
0.137269231 
0.1407125755 
0.132003907 
0.1303867425 
0.1299243361 
0.1309389937 
0.1311530957 
0.1308343365 
0.1306450007 
0.1315941806 
0.1316260892 
0.1224432023 
0.1199138685 
0.121134365 
0.1214650372 
0.1233379883 
0.1251832674 
0.1229853635 
0.1229546707 
0.1239010429 
0.1229170456 
0.1328553285 
0.1388623446 
0.1454165413 
0.1581783891 
0.1646226135 
0.1721598412 
0.1875400928 
0.1978181832 
0.2051349924 
0.2220812401 
0.23146804 
0.2448556744 
0.2593214718 
0.270793742 
0.2824478133 
0.293610525 
0.3067380779 
0.3225358766 
0.3285708718 
0.3383353554 
0.3478445508 
0.3538782536 
0.3542227945 
0.1139012445 
0.1130756626 
0.1160288627 
0.115571003 
0.1148597256 
0.1157803403 
0.1122855962 
0.1158368188 
0.114183353 
0.3579695728 
0.360713945 
0.3592628774 
0.3567038728 
0.3520455913 
0.357042424 
0.3612173841 
0.3562876837 
0.3585395599 
0.35266546 
0.3499398029 
0.3535993561 
0.3526713244 
0.3497908577 
0.3506025856 
0.3524670701 
0.3517869738 
0.3528756712 
0.3419989669 
0.3457099264 
0.3428333825 
0.3487645769 
0.3467542318 
0.3459836334 
0.3413885436 
0.3451992749 
0.3419214838 
0.335566685 
0.3345617906 
0.336567822 
0.3404667222 
0.3357374147 
0.3356100701 
0.3412257253 
0.3363313178 
0.3362634787 
0.3287350451 
0.3283268684 
0.321921009 
0.335723762 
0.3272776507 
0.3256664751 
0.3313071432 
0.3214362341 
0.3247273362 
0.318121106 
0.3137132153 
0.3158118602 
0.3166875125 
0.3220142452 
0.3145251571 
0.310721705 
0.3162804396 
0.3224549959 
0.3073891101 
0.3021007617 
0.3103835062 
0.3080459789 
0.2990957712 
0.3004956207 
0.3058931052 
0.3049521131 
0.3043508009 
0.2959249014 
0.2950795596 
0.294681459 
0.2932879504 
0.2996151688 
0.2974317886 
0.2927805665 
0.2896328238 
0.2899877037 
0.2848071137 
0.2858659144 
0.2831886314 
0.2814128013 
0.2801556534 
0.2807940243 
0.2798137474 
0.2825882767 
0.2860566558 
0.2721922895 
0.272247898 
0.2709756092 
0.2701842407 
0.2744668337 
0.273819598 
0.2694091387 
0.2690086901 
0.2692417682 
0.2617313709 
0.2580340611 
0.2553330618 
0.2573387904 
0.2541963876 
0.2554596975 
0.2599854429 
0.259843086 
0.2617371636 
0.2499755283 
0.2440195189 
0.2443896715 
0.2485327097 
0.2478181921 
0.248217933 
0.2521247235 
0.2442196583 
0.2481212017 
0.2348835069 
0.2367688623 
0.2336464199 
0.2346944473 
0.234582177 
0.2315683731 
0.2327653409 
0.2367247225 
0.233799678 
0.2248924104 
0.2251302975 
0.2225001563 
0.2201087533 
0.2224950179 
0.2196934651 
0.2191130458 
0.2220183837 
0.2182844765 
0.2095969281 
0.2085685043 
0.2105069666 
0.2092033392 
0.2080234226 
0.2090467297 
0.2122851241 
0.2082483449 
0.2064923402 
0.1950504757 
0.1955131795 
0.2018125473 
0.1971635388 
0.1992303659 
0.1990156061 
0.194280518 
0.1950866081 
0.1990989646 
0.1874710117 
0.1871234545 
0.1850507112 
0.1870744625 
0.1871186964 
0.1853280771 
0.1893475647 
0.1912104329 
0.186470424 
0.1763204935 
0.175311019 
0.1765645 
0.1775424635 
0.1750685838 
0.1774208338 
0.176471397 
0.1735097529 
0.1740182927 
0.1685658019 
0.1634388423 
0.1662216285 
0.1642093588 
0.164996038 
0.1650252682 
0.1623387454 
0.1660354063 
0.1632223008 
0.1542438275 
0.1555633173 
0.1538018404 
0.1559050912 
0.1575367456 
0.1568842167 
0.1541817881 
0.1557488376 
0.1540958362 
0.1464900349 
0.1459336052 
0.1457003755 
0.1469305492 
0.148648663 
0.1447004537 
0.1479215438 
0.1477836528 
0.146977399 
0.1384826687 
0.1409817531 
0.1396922106 
0.1379648517 
0.1393234665 
0.1392639158 
0.1385639629 
0.1380613964 
0.1379527337 
0.128073025 
0.1282828472 
0.1274308122 
0.1266137313 
0.1282206283 
0.1312641662 
0.1303600932 
0.1297434823 
0.1305232417 
0.1240282009 
0.120982253 
0.1226495585 
0.1222966658 
0.1224357773 
0.1226128973 
0.1216025774 
0.1226101935 
0.1232808211 
0.1153331398 
0.117772851 
0.1151255411 
0.1157846517 
0.1156251777 
0.1146678452 
0.1184841228 
0.1143487869 
0.1135891364 
0.1167148524 
0.1152821564 
0.113317025 
0.1136743691 
0.1148043856 
0.113517845 
0.1148736654 
0.1159522504 
0.1162701267 
0.1152471696 
0.1125699944 
0.1157889111 
0.1160374173 
0.1146583118 
0.1125973846 
0.1150331409 
0.1159023329 
0.1167980201 
0.1154648328 
0.11313018 
0.1145991166 
0.1142928206 
0.1164025628 
0.1143073858 
0.1151228086 
0.1151751499 
0.1155152656 
0.1141406387 
0.1164081182 
0.1170625428 
0.1175584358 
0.1168993942 
0.1151506225 
0.1145279072 
0.1134729168 
0.1151040596 
0.1143938807 
0.1138008184 
0.1144734508 
0.1153756484 
0.1144954603 
0.1137303402 
0.1160452356 
0.1132244745 
0.1149670136 
0.1150654522 
0.1134316874 
0.1152682827 
0.1148053747 
0.1152685072 
0.1141415032 
0.1141420495 
0.1162006472 
0.1138916203 
0.1184051227 
0.1128093781 
0.1142524901 
0.1130702396 
0.1145982749 
0.11138652 
0.1134300184 
0.1121234576 
0.1141509614 
0.1162418634 
0.1148388178 
0.1154858738 
0.1133027349 
0.1155572801 
0.1160040888 
0.1146540824 
0.1159985918 
0.1139259711 
0.3572781163 
0.3561895085 
0.3618449428 
0.3501148932 
0.3547078077 
0.3573401744 
0.3571753926 
0.3592557738 
0.3642244801 
0.3524761424 
0.3508172731 
0.3522351733 
0.3527967135 
0.3516203704 
0.3531265262 
0.355121644 
0.3496664622 
0.3515008268 
0.3457039535 
0.3475008086 
0.344914347 
0.3451111934 
0.3448492431 
0.3495225524 
0.3441954387 
0.3461978485 
0.3420328954 
0.337153138 
0.3390355543 
0.3387545896 
0.3359806249 
0.339029634 
0.3372401224 
0.3457840146 
0.3355357136 
0.3322098658 
0.3298476867 
0.330372876 
0.3265070066 
0.3355580901 
0.3293771257 
0.3265404731 
0.3282813469 
0.33007684 
0.3311978562 
0.3149445124 
0.3181389945 
0.317401292 
0.3148302507 
0.3164332862 
0.3169333148 
0.3138141773 
0.3197529621 
0.316962098 
0.3034285234 
0.300453641 
0.3059216804 
0.3042581596 
0.3074476192 
0.3044698604 
0.3024742178 
0.3073992905 
0.3069545676 
0.2908860607 
0.2961473219 
0.2919902432 
0.2956896226 
0.2953331645 
0.2893700983 
0.297322618 
0.2921398152 
0.2905514418 
0.2835311862 
0.2842845064 
0.282306734 
0.284244284 
0.2836578092 
0.2860021409 
0.2816800499 
0.2843044884 
0.2777311518 
0.271371329 
0.2699475644 
0.2683017372 
0.2699768319 
0.2687503884 
0.2730438369 
0.2693047522 
0.2721450736 
0.2664715996 
0.2550253294 
0.2563944449 
0.256967691 
0.257008063 
0.2528417659 
0.262928456 
0.2576531035 
0.2588583671 
0.2550249966 
0.248725263 
0.2461450159 
0.2430146344 
0.2447636816 
0.2445232024 
0.2435377034 
0.2504324493 
0.2497551507 
0.2445052661 
0.2333472153 
0.2312629511 
0.2371454208 
0.2322099125 
0.2347534357 
0.2354874459 
0.2328924198 
0.2328945432 
0.231829134 
0.2213598308 
0.2218184109 
0.2221148475 
0.2213569925 
0.2208174238 
0.2186360044 
0.2201336784 
0.2211225376 
0.222809712 
0.2072853626 
0.2082104468 
0.2082635112 
0.2087935978 
0.2089327894 
0.2099542854 
0.2079044079 
0.2096391319 
0.2107374265 
0.1961823733 
0.1977297657 
0.1999786246 
0.1968847687 
0.198618558 
0.1993232813 
0.195115594 
0.1988694138 
0.1971423561 
0.1835742569 
0.1851425603 
0.1884752377 
0.1870176385 
0.1862558743 
0.1871539004 
0.1877951133 
0.1884134524 
0.1887115857 
0.1792448916 
0.1772545904 
0.1748076464 
0.176068179 
0.1769195521 
0.1755987921 
0.1788501821 
0.1781507735 
0.1761878284 
0.1656189463 
0.1634291355 
0.1676283418 
0.1630176675 
0.1680266028 
0.1695540585 
0.1684285268 
0.1669074248 
0.1634687827 
0.1559245122 
0.1548264273 
0.1576089633 
0.1567055297 
0.1571939863 
0.1587800103 
0.1564144838 
0.1580635519 
0.1558870663 
0.1482175 
0.1475661315 
0.1458427568 
0.1487299657 
0.1477289825 
0.1457625649 
0.1483092009 
0.1469097899 
0.1471346906 
0.1373582254 
0.135281149 
0.1380025016 
0.1382687667 
0.1361057011 
0.1392963566 
0.1378104453 
0.1372244328 
0.1373178426 
0.1317217218 
0.128549478 
0.130283986 
0.1294709331 
0.1292597892 
0.1295213374 
0.1269974718 
0.1305750771 
0.1284828484 
0.1219667635 
0.1205156214 
0.1236024941 
0.1227014889 
0.1214089414 
0.1204236229 
0.1221617951 
0.1247807413 
0.1227639332 
0.3576183726 
0.3538520118 
0.3589189018 
0.3628638729 
0.3627967079 
0.3548085178 
0.3604085631 
0.3620875296 
0.3580866843 
0.3566371555 
0.3557288408 
0.3540582073 
0.3456336945 
0.3506663046 
0.3507905367 
0.3498985411 
0.3529516506 
0.3553544886 
0.3480341899 
0.3411943103 
0.3449321743 
0.3425611796 
0.3484378328 
0.346943082 
0.3427430368 
0.3464493451 
0.3491155209 
0.3393578669 
0.335809669 
0.3365492012 
0.3412122536 
0.3362613175 
0.332024692 
0.3384765299 
0.3389664548 
0.343413771 
0.3290447035 
0.3226492198 
0.3316153178 
0.3275232957 
0.3294832463 
0.3262265214 
0.3261000695 
0.3230271968 
0.3265838666 
0.3197439654 
0.3205182615 
0.3189800526 
0.313912935 
0.3215417039 
0.3177031981 
0.3200228704 
0.3205632729 
0.3207697298 
0.3011576684 
0.3061429512 
0.3020794988 
0.3092549286 
0.3071843291 
0.3082440731 
0.3026667088 
0.30538184 
0.307808227 
0.2955271194 
0.2947174913 
0.2972793522 
0.2905574639 
0.291526352 
0.2928004123 
0.2928397334 
0.2957650735 
0.2980498754 
0.2878287778 
0.2853868468 
0.2819359228 
0.2831591492 
0.2825992878 
0.2825902461 
0.2774484175 
0.2816626144 
0.2825951097 
0.2717086108 
0.2680503109 
0.2720304882 
0.2737316301 
0.2718302537 
0.2713116757 
0.2700870172 
0.2720282636 
0.2728971433 
0.2640329522 
0.2546090013 
0.2554342644 
0.2544399172 
0.2517804551 
0.2536589765 
0.2556781155 
0.2575951337 
0.2584508788 
0.2442832768 
0.2469174111 
0.2478955125 
0.2501660708 
0.2473707431 
0.2438013266 
0.2462577514 
0.2466700684 
0.2450537438 
0.2395440326 
0.2328307289 
0.2382118807 
0.2327023672 
0.2325813887 
0.2328170802 
0.2333789133 
0.2354033332 
0.2341814367 
0.2248400795 
0.2244086379 
0.2185790244 
0.2211401524 
0.223274575 
0.2203235507 
0.2175691285 
0.2249418747 
0.2248789316 
0.2111743607 
0.2054122611 
0.2110452662 
0.2079502389 
0.2118731679 
0.2097877454 
0.2101980593 
0.2069494401 
0.2092296503 
0.19783145 
0.1953771773 
0.1979671631 
0.1970367034 
0.1971878058 
0.200303744 
0.1994382647 
0.1951582858 
0.1979801986 
0.187513419 
0.1892647779 
0.1817223513 
0.1855379102 
0.1877253914 
0.1874147701 
0.1883831287 
0.1863702832 
0.1893205349 
0.1736121919 
0.1783824293 
0.1762040049 
0.1715749056 
0.1747741706 
0.177191568 
0.1729000526 
0.1778560781 
0.178128124 
0.1659671476 
0.1656442744 
0.1679367415 
0.1647308371 
0.1650681429 
0.1662168963 
0.1706334137 
0.1654293121 
0.1687479364 
0.156117304 
0.1575308284 
0.1556133586 
0.1563766829 
0.1553719792 
0.155427814 
0.1547268723 
0.1519553704 
0.1524113368 
0.1456072154 
0.1456465085 
0.1464492141 
0.145771317 
0.1477251913 
0.1455312809 
0.1461361257 
0.1486037423 
0.1466191902 
0.1391037909 
0.1369155706 
0.1367461576 
0.1385186805 
0.1404808681 
0.1337634604 
0.1375762663 
0.1370840521 
0.1369760516 
0.1302223453 
0.129378847 
0.1304124275 
0.1296228371 
0.1299910045 
0.1293466712 
0.1273271576 
0.129698888 
0.1287322061 
0.1217912757 
0.1215812462 
0.1212891406 
0.1216087096 
0.1214938814 
0.1216326599 
0.1194657781 
0.1227570433 
0.1221632922 
0.3603968681 
0.3547868307 
0.3460819414 
0.3360645799 
0.3302946227 
0.3109471222 
0.3055007512 
0.2897181908 
0.2805999338 
0.2714273645 
0.2529825564 
0.2454611485 
0.2337896272 
0.2202699119 
0.2096690851 
0.1990870125 
0.1887800315 
0.1760273986 
0.1604445716 
0.1540361906 
0.1472470553 
0.1371416554 
0.1286058169 
0.1228912855 
0.362900121 
0.3564102616 
0.3469665046 
0.3332308762 
0.32642609 
0.3115968889 
0.3056931041 
0.2967753968 
0.2787113705 
0.2667212607 
0.2577804767 
0.2464071448 
0.2330710054 
0.220871766 
0.2091069157 
0.1975630533 
0.1873837212 
0.1779875423 
0.1689604994 
0.1555886178 
0.1488450761 
0.1377582188 
0.1298201536 
0.1218998523 
0.3530810456 
0.3516722511 
0.3412192499 
0.335131323 
0.3302474957 
0.3164204977 
0.3017488411 
0.2941679599 
0.2832079882 
0.2688630473 
0.26075818 
0.2437350055 
0.2354101641 
0.222352016 
0.2117176374 
0.1990014993 
0.1861884224 
0.1742582558 
0.1658480096 
0.1554972017 
0.1481147404 
0.1401663173 
0.1291521602 
0.1221155275 
0.3569163118 
0.3520303516 
0.3429182238 
0.3378070836 
0.3294509065 
0.3199194921 
0.301510758 
0.2919619497 
0.2831923874 
0.2717596437 
0.2527943222 
0.2464753531 
0.2352449128 
0.2198595982 
0.2129410512 
0.2001798606 
0.1839441715 
0.1782445761 
0.1626262969 
0.1541234519 
0.1461638561 
0.1363936801 
0.1280981295 
0.122430675 
0.3581861554 
0.3493573123 
0.3482116218 
0.3378791432 
0.3318495511 
0.3212952088 
0.3031543969 
0.2942962982 
0.281425451 
0.2706981832 
0.2547347234 
0.2441006717 
0.2343238616 
0.2187630963 
0.2094825845 
0.1997380811 
0.1871514753 
0.1759675164 
0.1685837196 
0.1545062622 
0.1461252028 
0.13509815 
0.1289579502 
0.1214491202 
0.3576580045 
0.3535279507 
0.342690675 
0.3386512925 
0.3221095566 
0.3170174244 
0.3075456054 
0.2957996039 
0.2808572074 
0.2697980275 
0.2639281436 
0.2439313 
0.2369716094 
0.221781478 
0.2117576917 
0.1974145718 
0.1870232158 
0.1767859496 
0.1650703901 
0.1561564458 
0.1480046557 
0.1390714975 
0.1285792336 
0.120523929 
0.3573664889 
0.3551930907 
0.3491451095 
0.336816864 
0.3265049302 
0.3186140387 
0.3017191542 
0.2916756879 
0.2837326931 
0.2700719354 
0.2545928384 
0.2482751182 
0.2340991951 
0.2225790065 
0.2070043515 
0.198032825 
0.1868372587 
0.177450932 
0.1640775112 
0.1554048361 
0.1451499309 
0.1399822087 
0.1271209442 
0.1221083564 
0.3562279552 
0.3567631635 
0.3438070609 
0.3342303612 
0.3280144295 
0.3166562536 
0.3087130572 
0.2933738578 
0.2864466253 
0.2701310574 
0.257078859 
0.2469852904 
0.237059346 
0.2219669652 
0.2085897081 
0.1982940459 
0.1866603332 
0.1730052147 
0.1668920239 
0.1557157768 
0.1461048606 
0.1381246237 
0.1316781557 
0.1206947833 
0.3580899374 
0.3507945665 
0.3465957247 
0.3361776794 
0.32011708 
0.316527516 
0.3034461058 
0.2922190743 
0.2860718777 
0.2696616872 
0.2583035488 
0.2465823977 
0.2338576982 
0.2234167811 
0.2082215919 
0.1952706838 
0.1873748083 
0.1797659161 
0.1660557183 
0.1566236062 
0.1484889989 
0.1391776579 
0.1301512338 
0.1221023654 
0.358293189 
0.3529924457 
0.3415559753 
0.3382757354 
0.325074148 
0.3208491759 
0.3104615024 
0.2952530481 
0.2801542087 
0.2689000083 
0.259726801 
0.2450276314 
0.2313956 
0.2197439558 
0.2136210795 
0.1979614731 
0.183652646 