# vtk DataFile Version 3.0
MOAB 4.99 (Alpha)
ASCII
DATASET UNSTRUCTURED_GRID
POINTS 3146 double
0 1 1
10 1 1
10 -1 1
0 -1 1
0 -0.8 1
0 -0.6 1
0 -0.4 1
0 -0.2 1
0 0 1
0 0.2 1
0 0.4 1
0 0.6 1
0 0.8 1
10 0.8 1
10 0.6 1
10 0.4 1
10 0.2 1
10 0 1
10 -0.2 1
10 -0.4 1
10 -0.6 1
10 -0.8 1
9.6 -1 1
9.2 -1 1
8.8 -1 1
8.4 -1 1
8 -1 1
7.6 -1 1
7.2 -1 1
6.8 -1 1
6.4 -1 1
6 -1 1
5.6 -1 1
5.2 -1 1
4.8 -1 1
4.4 -1 1
4 -1 1
3.6 -1 1
3.2 -1 1
2.8 -1 1
2.4 -1 1
2 -1 1
1.6 -1 1
1.2 -1 1
0.8 -1 1
0.4 -1 1
0.4 1 1
0.8 1 1
1.2 1 1
1.6 1 1
2 1 1
2.4 1 1
2.8 1 1
3.2 1 1
3.6 1 1
4 1 1
4.4 1 1
4.8 1 1
5.2 1 1
5.6 1 1
6 1 1
6.4 1 1
6.8 1 1
7.2 1 1
7.6 1 1
8 1 1
8.4 1 1
8.8 1 1
9.2 1 1
9.6 1 1
10 -1 -1
10 -1 0.8
10 -1 0.6
10 -1 0.4
10 -1 0.2
10 -1 0
10 -1 -0.2
10 -1 -0.4
10 -1 -0.6
10 -1 -0.8
10 1 -1
10 1 -0.8
10 1 -0.6
10 1 -0.4
10 1 -0.2
10 1 0
10 1 0.2
10 1 0.4
10 1 0.6
10 1 0.8
0 1 -1
0 -1 -1
0 0.8 -1
0 0.6 -1
0 0.4 -1
0 0.2 -1
0 0 -1
0 -0.2 -1
0 -0.4 -1
0 -0.6 -1
0 -0.8 -1
0 -1 -0.8
0 -1 -0.6
0 -1 -0.4
0 -1 -0.2
0 -1 0
0 -1 0.2
0 -1 0.4
0 -1 0.6
0 -1 0.8
0 1 0.8
0 1 0.6
0 1 0.4
0 1 0.2
0 1 0
0 1 -0.2
0 1 -0.4
0 1 -0.6
0 1 -0.8
0 0.8 -0.8
0 0.6 -0.8
0 0.4 -0.8
0 0.2 -0.8
0 1.387778781e-17 -0.8
0 -0.2 -0.8
0 -0.4 -0.8
0 -0.6 -0.8
0 -0.8 -0.8
0 0.8 -0.6
0 0.6 -0.6
0 0.4 -0.6
0 0.2 -0.6
0 2.775557562e-17 -0.6
0 -0.2 -0.6
0 -0.4 -0.6
0 -0.6 -0.6
0 -0.8 -0.6
0 0.8 -0.4
0 0.6 -0.4
0 0.4 -0.4
0 0.2 -0.4
0 -2.775557562e-17 -0.4
0 -0.2 -0.4
0 -0.4 -0.4
0 -0.6 -0.4
0 -0.8 -0.4
0 0.8 -0.2
0 0.6 -0.2
0 0.4 -0.2
0 0.2 -0.2
0 0 -0.2
0 -0.2 -0.2
0 -0.4 -0.2
0 -0.6 -0.2
0 -0.8 -0.2
0 0.8 0
0 0.6 0
0 0.4 0
0 0.2 1.110223025e-16
0 0 0
0 -0.2 0
0 -0.4 0
0 -0.6 0
0 -0.8 1.110223025e-16
0 0.8 0.2
0 0.6 0.2
0 0.4 0.2
0 0.2 0.2
0 0 0.2
0 -0.2 0.2
0 -0.4 0.2
0 -0.6 0.2
0 -0.8 0.2
0 0.8 0.4
0 0.6 0.4
0 0.4 0.4
0 0.2 0.4
0 0 0.4
0 -0.2 0.4
0 -0.4 0.4
0 -0.6 0.4
0 -0.8 0.4
0 0.8 0.6
0 0.6 0.6
0 0.4 0.6
0 0.2 0.6
0 0 0.6
0 -0.2 0.6
0 -0.4 0.6
0 -0.6 0.6
0 -0.8 0.6
0 0.8 0.8
0 0.6 0.8
0 0.4 0.8
0 0.2 0.8
0 0 0.8
0 -0.2 0.8
0 -0.4 0.8
0 -0.6 0.8
0 -0.8 0.8
0.4 -1 -1
0.8 -1 -1
1.2 -1 -1
1.6 -1 -1
2 -1 -1
2.4 -1 -1
2.8 -1 -1
3.2 -1 -1
3.6 -1 -1
4 -1 -1
4.4 -1 -1
4.8 -1 -1
5.2 -1 -1
5.6 -1 -1
6 -1 -1
6.4 -1 -1
6.8 -1 -1
7.2 -1 -1
7.6 -1 -1
8 -1 -1
8.4 -1 -1
8.8 -1 -1
9.2 -1 -1
9.6 -1 -1
0.4 -1 0.8
0.4 -1 0.6
0.4 -1 0.4
0.4 -1 0.2
0.4 -1 -1.734723476e-17
0.4 -1 -0.2
0.4 -1 -0.4
0.4 -1 -0.6
0.4 -1 -0.8
0.8 -1 0.8
0.8 -1 0.6
0.8 -1 0.4
0.8 -1 0.2
0.8 -1 2.081668171e-17
0.8 -1 -0.2
0.8 -1 -0.4
0.8 -1 -0.6
0.8 -1 -0.8
1.2 -1 0.8
1.2 -1 0.6
1.2 -1 0.4
1.2 -1 0.2
1.2 -1 0
1.2 -1 -0.2
1.2 -1 -0.4
1.2 -1 -0.6
1.2 -1 -0.8
1.6 -1 0.8
1.6 -1 0.6
1.6 -1 0.4
1.6 -1 0.2
1.6 -1 -1.387778781e-17
1.6 -1 -0.2
1.6 -1 -0.4
1.6 -1 -0.6
1.6 -1 -0.8
2 -1 0.8
2 -1 0.6
2 -1 0.4
2 -1 0.2
2 -1 2.775557562e-17
2 -1 -0.2
2 -1 -0.4
2 -1 -0.6
2 -1 -0.8
2.4 -1 0.8
2.4 -1 0.6
2.4 -1 0.4
2.4 -1 0.2
2.4 -1 0
2.4 -1 -0.2
2.4 -1 -0.4
2.4 -1 -0.6
2.4 -1 -0.8
2.8 -1 0.8
2.8 -1 0.6
2.8 -1 0.4
2.8 -1 0.2
2.8 -1 0
2.8 -1 -0.2
2.8 -1 -0.4
2.8 -1 -0.6
2.8 -1 -0.8
3.2 -1 0.8
3.2 -1 0.6
3.2 -1 0.4
3.2 -1 0.2
3.2 -1 -2.775557562e-17
3.2 -1 -0.2
3.2 -1 -0.4
3.2 -1 -0.6
3.2 -1 -0.8
3.6 -1 0.8
3.6 -1 0.6
3.6 -1 0.4
3.6 -1 0.2
3.6 -1 0
3.6 -1 -0.2
3.6 -1 -0.4
3.6 -1 -0.6
3.6 -1 -0.8
4 -1 0.8
4 -1 0.6
4 -1 0.4
4 -1 0.2
4 -1 0
4 -1 -0.2
4 -1 -0.4
4 -1 -0.6
4 -1 -0.8
4.4 -1 0.8
4.4 -1 0.6
4.4 -1 0.4
4.4 -1 0.2
4.4 -1 2.775557562e-17
4.4 -1 -0.2
4.4 -1 -0.4
4.4 -1 -0.6
4.4 -1 -0.8
4.8 -1 0.8
4.8 -1 0.6
4.8 -1 0.4
4.8 -1 0.2
4.8 -1 0
4.8 -1 -0.2
4.8 -1 -0.4
4.8 -1 -0.6
4.8 -1 -0.8
5.2 -1 0.8
5.2 -1 0.6
5.2 -1 0.4
5.2 -1 0.2
5.2 -1 0
5.2 -1 -0.2
5.2 -1 -0.4
5.2 -1 -0.6
5.2 -1 -0.8
5.6 -1 0.8
5.6 -1 0.6
5.6 -1 0.4
5.6 -1 0.2
5.6 -1 0
5.6 -1 -0.2
5.6 -1 -0.4
5.6 -1 -0.6
5.6 -1 -0.8
6 -1 0.8
6 -1 0.6
6 -1 0.4
6 -1 0.2
6 -1 0
6 -1 -0.2
6 -1 -0.4
6 -1 -0.6
6 -1 -0.8
6.4 -1 0.8
6.4 -1 0.6
6.4 -1 0.4
6.4 -1 0.2
6.4 -1 0
6.4 -1 -0.2
6.4 -1 -0.4
6.4 -1 -0.6
6.4 -1 -0.8
6.8 -1 0.8
6.8 -1 0.6
6.8 -1 0.4
6.8 -1 0.2
6.8 -1 0
6.8 -1 -0.2
6.8 -1 -0.4
6.8 -1 -0.6
6.8 -1 -0.8
7.2 -1 0.8
7.2 -1 0.6
7.2 -1 0.4
7.2 -1 0.2
7.2 -1 0
7.2 -1 -0.2
7.2 -1 -0.4
7.2 -1 -0.6
7.2 -1 -0.8
7.6 -1 0.8
7.6 -1 0.6
7.6 -1 0.4
7.6 -1 0.2
7.6 -1 0
7.6 -1 -0.2
7.6 -1 -0.4
7.6 -1 -0.6
7.6 -1 -0.8
8 -1 0.8
8 -1 0.6
8 -1 0.4
8 -1 0.2
8 -1 0
8 -1 -0.2
8 -1 -0.4
8 -1 -0.6
8 -1 -0.8
8.4 -1 0.8
8.4 -1 0.6
8.4 -1 0.4
8.4 -1 0.2
8.4 -1 0
8.4 -1 -0.2
8.4 -1 -0.4
8.4 -1 -0.6
8.4 -1 -0.8
8.8 -1 0.8
8.8 -1 0.6
8.8 -1 0.4
8.8 -1 0.2
8.8 -1 0
8.8 -1 -0.2
8.8 -1 -0.4
8.8 -1 -0.6
8.8 -1 -0.8
9.2 -1 0.8
9.2 -1 0.6
9.2 -1 0.4
9.2 -1 0.2
9.2 -1 0
9.2 -1 -0.2
9.2 -1 -0.4
9.2 -1 -0.6
9.2 -1 -0.8
9.6 -1 0.8
9.6 -1 0.6
9.6 -1 0.4
9.6 -1 0.2
9.6 -1 0
9.6 -1 -0.2
9.6 -1 -0.4
9.6 -1 -0.6
9.6 -1 -0.8
9.6 1 -1
9.2 1 -1
8.8 1 -1
8.4 1 -1
8 1 -1
7.6 1 -1
7.2 1 -1
6.8 1 -1
6.4 1 -1
6 1 -1
5.6 1 -1
5.2 1 -1
4.8 1 -1
4.4 1 -1
4 1 -1
3.6 1 -1
3.2 1 -1
2.8 1 -1
2.4 1 -1
2 1 -1
1.6 1 -1
1.2 1 -1
0.8 1 -1
0.4 1 -1
10 -0.8 -1
10 -0.6 -1
10 -0.4 -1
10 -0.2 -1
10 0 -1
10 0.2 -1
10 0.4 -1
10 0.6 -1
10 0.8 -1
0.4 -0.8 -1
0.4 -0.6 -1
0.4 -0.4 -1
0.4 -0.2 -1
0.4 1.734723476e-17 -1
0.4 0.2 -1
0.4 0.4 -1
0.4 0.6 -1
0.4 0.8 -1
0.8 -0.8 -1
0.8 -0.6 -1
0.8 -0.4 -1
0.8 -0.2 -1
0.8 -2.081668171e-17 -1
0.8 0.2 -1
0.8 0.4 -1
0.8 0.6 -1
0.8 0.8 -1
1.2 -0.8 -1
1.2 -0.6 -1
1.2 -0.4 -1
1.2 -0.2 -1
1.2 0 -1
1.2 0.2 -1
1.2 0.4 -1
1.2 0.6 -1
1.2 0.8 -1
1.6 -0.8 -1
1.6 -0.6 -1
1.6 -0.4 -1
1.6 -0.2 -1
1.6 1.387778781e-17 -1
1.6 0.2 -1
1.6 0.4 -1
1.6 0.6 -1
1.6 0.8 -1
2 -0.8 -1
2 -0.6 -1
2 -0.4 -1
2 -0.2 -1
2 -2.775557562e-17 -1
2 0.2 -1
2 0.4 -1
2 0.6 -1
2 0.8 -1
2.4 -0.8 -1
2.4 -0.6 -1
2.4 -0.4 -1
2.4 -0.2 -1
2.4 0 -1
2.4 0.2 -1
2.4 0.4 -1
2.4 0.6 -1
2.4 0.8 -1
2.8 -0.8 -1
2.8 -0.6 -1
2.8 -0.4 -1
2.8 -0.2 -1
2.8 0 -1
2.8 0.2 -1
2.8 0.4 -1
2.8 0.6 -1
2.8 0.8 -1
3.2 -0.8 -1
3.2 -0.6 -1
3.2 -0.4 -1
3.2 -0.2 -1
3.2 2.775557562e-17 -1
3.2 0.2 -1
3.2 0.4 -1
3.2 0.6 -1
3.2 0.8 -1
3.6 -0.8 -1
3.6 -0.6 -1
3.6 -0.4 -1
3.6 -0.2 -1
3.6 0 -1
3.6 0.2 -1
3.6 0.4 -1
3.6 0.6 -1
3.6 0.8 -1
4 -0.8 -1
4 -0.6 -1
4 -0.4 -1
4 -0.2 -1
4 0 -1
4 0.2 -1
4 0.4 -1
4 0.6 -1
4 0.8 -1
4.4 -0.8 -1
4.4 -0.6 -1
4.4 -0.4 -1
4.4 -0.2 -1
4.4 -2.775557562e-17 -1
4.4 0.2 -1
4.4 0.4 -1
4.4 0.6 -1
4.4 0.8 -1
4.8 -0.8 -1
4.8 -0.6 -1
4.8 -0.4 -1
4.8 -0.2 -1
4.8 0 -1
4.8 0.2 -1
4.8 0.4 -1
4.8 0.6 -1
4.8 0.8 -1
5.2 -0.8 -1
5.2 -0.6 -1
5.2 -0.4 -1
5.2 -0.2 -1
5.2 0 -1
5.2 0.2 -1
5.2 0.4 -1
5.2 0.6 -1
5.2 0.8 -1
5.6 -0.8 -1
5.6 -0.6 -1
5.6 -0.4 -1
5.6 -0.2 -1
5.6 0 -1
5.6 0.2 -1
5.6 0.4 -1
5.6 0.6 -1
5.6 0.8 -1
6 -0.8 -1
6 -0.6 -1
6 -0.4 -1
6 -0.2 -1
6 0 -1
6 0.2 -1
6 0.4 -1
6 0.6 -1
6 0.8 -1
6.4 -0.8 -1
6.4 -0.6 -1
6.4 -0.4 -1
6.4 -0.2 -1
6.4 0 -1
6.4 0.2 -1
6.4 0.4 -1
6.4 0.6 -1
6.4 0.8 -1
6.8 -0.8 -1
6.8 -0.6 -1
6.8 -0.4 -1
6.8 -0.2 -1
6.8 0 -1
6.8 0.2 -1
6.8 0.4 -1
6.8 0.6 -1
6.8 0.8 -1
7.2 -0.8 -1
7.2 -0.6 -1
7.2 -0.4 -1
7.2 -0.2 -1
7.2 0 -1
7.2 0.2 -1
7.2 0.4 -1
7.2 0.6 -1
7.2 0.8 -1
7.6 -0.8 -1
7.6 -0.6 -1
7.6 -0.4 -1
7.6 -0.2 -1
7.6 0 -1
7.6 0.2 -1
7.6 0.4 -1
7.6 0.6 -1
7.6 0.8 -1
8 -0.8 -1
8 -0.6 -1
8 -0.4 -1
8 -0.2 -1
8 0 -1
8 0.2 -1
8 0.4 -1
8 0.6 -1
8 0.8 -1
8.4 -0.8 -1
8.4 -0.6 -1
8.4 -0.4 -1
8.4 -0.2 -1
8.4 0 -1
8.4 0.2 -1
8.4 0.4 -1
8.4 0.6 -1
8.4 0.8 -1
8.8 -0.8 -1
8.8 -0.6 -1
8.8 -0.4 -1
8.8 -0.2 -1
8.8 0 -1
8.8 0.2 -1
8.8 0.4 -1
8.8 0.6 -1
8.8 0.8 -1
9.2 -0.8 -1
9.2 -0.6 -1
9.2 -0.4 -1
9.2 -0.2 -1
9.2 0 -1
9.2 0.2 -1
9.2 0.4 -1
9.2 0.6 -1
9.2 0.8 -1
9.6 -0.8 -1
9.6 -0.6 -1
9.6 -0.4 -1
9.6 -0.2 -1
9.6 0 -1
9.6 0.2 -1
9.6 0.4 -1
9.6 0.6 -1
9.6 0.8 -1
10 -0.8 0.8
10 -0.8 0.6
10 -0.8 0.4
10 -0.8 0.2
10 -0.8 1.387778781e-17
10 -0.8 -0.2
10 -0.8 -0.4
10 -0.8 -0.6
10 -0.8 -0.8
10 -0.6 0.8
10 -0.6 0.6
10 -0.6 0.4
10 -0.6 0.2
10 -0.6 2.775557562e-17
10 -0.6 -0.2
10 -0.6 -0.4
10 -0.6 -0.6
10 -0.6 -0.8
10 -0.4 0.8
10 -0.4 0.6
10 -0.4 0.4
10 -0.4 0.2
10 -0.4 -2.775557562e-17
10 -0.4 -0.2
10 -0.4 -0.4
10 -0.4 -0.6
10 -0.4 -0.8
10 -0.2 0.8
10 -0.2 0.6
10 -0.2 0.4
10 -0.2 0.2
10 -0.2 0
10 -0.2 -0.2
10 -0.2 -0.4
10 -0.2 -0.6
10 -0.2 -0.8
10 0 0.8
10 0 0.6
10 0 0.4
10 0 0.2
10 0 0
10 0 -0.2
10 0 -0.4
10 0 -0.6
10 0 -0.8
10 0.2 0.8
10 0.2 0.6
10 0.2 0.4
10 0.2 0.2
10 0.2 0
10 0.2 -0.2
10 0.2 -0.4
10 0.2 -0.6
10 0.2 -0.8
10 0.4 0.8
10 0.4 0.6
10 0.4 0.4
10 0.4 0.2
10 0.4 0
10 0.4 -0.2
10 0.4 -0.4
10 0.4 -0.6
10 0.4 -0.8
10 0.6 0.8
10 0.6 0.6
10 0.6 0.4
10 0.6 0.2
10 0.6 0
10 0.6 -0.2
10 0.6 -0.4
10 0.6 -0.6
10 0.6 -0.8
10 0.8 0.8
10 0.8 0.6
10 0.8 0.4
10 0.8 0.2
10 0.8 0
10 0.8 -0.2
10 0.8 -0.4
10 0.8 -0.6
10 0.8 -0.8
0.4 0.8 1
0.4 0.6 1
0.4 0.4 1
0.4 0.2 1
0.4 -1.734723476e-17 1
0.4 -0.2 1
0.4 -0.4 1
0.4 -0.6 1
0.4 -0.8 1
0.8 0.8 1
0.8 0.6 1
0.8 0.4 1
0.8 0.2 1
0.8 2.081668171e-17 1
0.8 -0.2 1
0.8 -0.4 1
0.8 -0.6 1
0.8 -0.8 1
1.2 0.8 1
1.2 0.6 1
1.2 0.4 1
1.2 0.2 1
1.2 0 1
1.2 -0.2 1
1.2 -0.4 1
1.2 -0.6 1
1.2 -0.8 1
1.6 0.8 1
1.6 0.6 1
1.6 0.4 1
1.6 0.2 1
1.6 -1.387778781e-17 1
1.6 -0.2 1
1.6 -0.4 1
1.6 -0.6 1
1.6 -0.8 1
2 0.8 1
2 0.6 1
2 0.4 1
2 0.2 1
2 2.775557562e-17 1
2 -0.2 1
2 -0.4 1
2 -0.6 1
2 -0.8 1
2.4 0.8 1
2.4 0.6 1
2.4 0.4 1
2.4 0.2 1
2.4 0 1
2.4 -0.2 1
2.4 -0.4 1
2.4 -0.6 1
2.4 -0.8 1
2.8 0.8 1
2.8 0.6 1
2.8 0.4 1
2.8 0.2 1
2.8 0 1
2.8 -0.2 1
2.8 -0.4 1
2.8 -0.6 1
2.8 -0.8 1
3.2 0.8 1
3.2 0.6 1
3.2 0.4 1
3.2 0.2 1
3.2 -2.775557562e-17 1
3.2 -0.2 1
3.2 -0.4 1
3.2 -0.6 1
3.2 -0.8 1
3.6 0.8 1
3.6 0.6 1
3.6 0.4 1
3.6 0.2 1
3.6 0 1
3.6 -0.2 1
3.6 -0.4 1
3.6 -0.6 1
3.6 -0.8 1
4 0.8 1
4 0.6 1
4 0.4 1
4 0.2 1
4 0 1
4 -0.2 1
4 -0.4 1
4 -0.6 1
4 -0.8 1
4.4 0.8 1
4.4 0.6 1
4.4 0.4 1
4.4 0.2 1
4.4 2.775557562e-17 1
4.4 -0.2 1
4.4 -0.4 1
4.4 -0.6 1
4.4 -0.8 1
4.8 0.8 1
4.8 0.6 1
4.8 0.4 1
4.8 0.2 1
4.8 0 1
4.8 -0.2 1
4.8 -0.4 1
4.8 -0.6 1
4.8 -0.8 1
5.2 0.8 1
5.2 0.6 1
5.2 0.4 1
5.2 0.2 1
5.2 0 1
5.2 -0.2 1
5.2 -0.4 1
5.2 -0.6 1
5.2 -0.8 1
5.6 0.8 1
5.6 0.6 1
5.6 0.4 1
5.6 0.2 1
5.6 0 1
5.6 -0.2 1
5.6 -0.4 1
5.6 -0.6 1
5.6 -0.8 1
6 0.8 1
6 0.6 1
6 0.4 1
6 0.2 1
6 0 1
6 -0.2 1
6 -0.4 1
6 -0.6 1
6 -0.8 1
6.4 0.8 1
6.4 0.6 1
6.4 0.4 1
6.4 0.2 1
6.4 0 1
6.4 -0.2 1
6.4 -0.4 1
6.4 -0.6 1
6.4 -0.8 1
6.8 0.8 1
6.8 0.6 1
6.8 0.4 1
6.8 0.2 1
6.8 0 1
6.8 -0.2 1
6.8 -0.4 1
[...]
POINT_DATA 3146
SCALARS KDE_TALLY_TAG double 1
LOOKUP_TABLE default
0.3664661012 
0.1153980945 
0.1172053249 
0.3595497372 
0.3621432062 
0.3677942051 
0.3573037188 
0.3563277813 
0.3598419225 
0.3624556408 
0.3660279886 
0.3640800001 
0.360717568 
0.1167104442 
0.1157075804 
0.1156030238 
0.1154050702 
0.114933964 
0.1142043811 
0.1132871696 
0.1148282467 
0.1168697798 
0.1239381534 
0.1278600462 
0.1396039174 
0.1457098557 
0.1540836266 
0.166112585 
0.1729871582 
0.1843287836 
0.1954991384 
0.2093160393 
0.2198218132 
0.2310636507 
0.2471643815 
0.2613543607 
0.27225461 
0.286602911 
0.2953623526 
0.3062993038 
0.3161927452 
0.3288714803 
0.3395572577 
0.3411573796 
0.3543471873 
0.3561034967 
0.3586959222 
0.3527583215 
0.3465887629 
0.3371719973 
0.327587613 
0.3188640541 
0.3086867825 
0.2972218866 
0.2825026097 
0.2681833343 
0.2558663554 
0.2421349471 
0.233038945 
0.2234890209 
0.2112892413 
0.1977220418 
0.1859460734 
0.1754407286 
0.1630223475 
0.155759677 
0.1490749657 
0.138460106 
0.1316610661 
0.1229859653 
0.1122827614 
0.1165433853 
0.116032329 
0.1167959789 
0.1177738963 
0.112942978 
0.1175989122 
0.1129123727 
0.1157101529 
0.1140828067 
0.1145078672 
0.115413847 
0.113851156 
0.1150592199 
0.1169165145 
0.116493454 
0.1154699425 
0.1179151222 
0.1146124548 
0.1138953009 
0.3616057411 
0.3654781843 
0.3607559439 
0.3630392597 
0.3646567696 
0.3654317151 
0.3597166572 
0.3581110077 
0.365935517 
0.3625052065 
0.3628676355 
0.3689841745 
0.3610888038 
0.3652887181 
0.3578073617 
0.3665780489 
0.3650796254 
0.3591707407 
0.3632022332 
0.3589020941 
0.3639661377 
0.3609610725 
0.3721368954 
0.3702525104 
0.3634839837 
0.3632372189 
0.3622562195 
0.361078347 
0.3571693392 
0.3634732268 
0.3628023932 
0.3660618036 
0.3592182849 
0.3646670834 
0.361288505 
0.3609254441 
0.3598657832 
0.3634137471 
0.3649647384 
0.3611587239 
0.3636380673 
0.3608589991 
0.3642622059 
0.3667024307 
0.3623342881 
0.3597191563 
0.3648707189 
0.3610481515 
0.3540815643 
0.3599403267 
0.3612288702 
0.3620686643 
0.3617486777 
0.36347731 
0.3618401447 
0.3585818618 
0.3606714516 
0.3661490988 
0.3627977862 
0.3634622231 
0.361875159 
0.3578128578 
0.3633231405 
0.3631114187 
0.3628064894 
0.3677159834 
0.3636605802 
0.3661488342 
0.3633897383 
0.3563021092 
0.3630894229 
0.3642283205 
0.3629876234 
0.3620220233 
0.3639758146 
0.3629862048 
0.3608994655 
0.3602641537 
0.3616149583 
0.3635728868 
0.3635394309 
0.3633924017 
0.3649679112 
0.3685736208 
0.3626993098 
0.3610826164 
0.3624260317 
0.3647273209 
0.3624837822 
0.3614007786 
0.3627060226 
0.3596458066 
0.3611650269 
0.3623159495 
0.3589828343 
0.3622385974 
0.3589082415 
0.3625730363 
0.3609372599 
0.3564686267 
0.3577182829 
0.3604594561 
0.3640030472 
0.3620944648 
0.3591610165 
0.3638976905 
0.3589087535 
0.3622971501 
0.3613021672 
0.3646662014 
0.3612013865 
0.352598413 
0.3492180654 
0.340920806 
0.3247983832 
0.3146892098 
0.306192089 
0.2985366833 
0.2824342554 
0.2691741323 
0.2545582553 
0.2424078162 
0.2350445529 
0.2203359536 
0.2071116071 
0.1992652999 
0.1873638686 
0.1767165921 
0.1687352309 
0.158450165 
0.1485064626 
0.1390408789 
0.1292868407 
0.1212816144 
0.355826489 
0.3588854558 
0.3543992563 
0.357992898 
0.358065851 
0.3577490629 
0.3600858174 
0.3594185523 
0.3648362538 
0.3535194259 
0.3509930588 
0.3520070729 
0.3527432092 
0.3560565246 
0.3562650412 
0.3505858902 
0.3516531556 
0.3540765059 
0.3472552635 
0.3450668947 
0.3449549734 
0.3443272047 
0.3524313092 
0.3517543185 
0.3419316037 
0.3462248252 
0.3503994873 
0.3348384507 
0.3385426698 
0.3386981219 
0.3399772719 
0.3364674585 
0.3417380211 
0.3357333714 
0.3335824876 
0.3410910828 
0.3274319821 
0.3248218716 
0.3277996647 
0.3230641715 
0.3270529966 
0.3286746253 
0.3272314711 
0.3224676513 
0.3286319193 
0.3214621165 
0.3111183344 
0.3143210307 
0.3205685436 
0.3155517337 
0.3155497472 
0.317861882 
0.3168177614 
0.3193883314 
0.3048233818 
0.305167804 
0.3026980093 
0.3068621059 
0.3046040556 
0.3029153507 
0.3039536119 
0.3029746259 
0.3067459736 
0.2885400537 
0.2963490761 
0.2940928256 
0.2960965282 
0.2955986678 
0.292368235 
0.290410784 
0.2953629477 
0.2965240747 
0.2804792682 
0.2837084298 
0.282851097 
0.2810600718 
0.2831109668 
0.2762545547 
0.2818456785 
0.2824235481 
0.2829704544 
0.2688638151 
0.2680236101 
0.2686868193 
0.2661215281 
0.2692234925 
0.2708124475 
0.2699466037 
0.2668182799 
0.2709270453 
0.2560669161 
0.2573222962 
0.2556525055 
0.2590925315 
0.2613257104 
0.2562997467 
0.2571200199 
0.256177968 
0.2573590203 
0.2453193087 
0.2447710996 
0.2461460906 
0.246862711 
0.2421237855 
0.2440449911 
0.2441928267 
0.2446107487 
0.2419357008 
0.232227763 
0.2322597936 
0.2313492274 
0.2331047913 
0.2334436907 
0.2318460356 
0.2256562428 
0.2329574041 
0.2367502677 
0.2194299237 
0.2236542878 
0.2205513778 
0.2202478167 
0.2214646257 
0.2242540251 
0.2220127646 
0.2206222302 
0.2218287941 
0.2071603426 
0.2069616865 
0.2108431286 
0.212487764 
0.2080979546 
0.2130623162 
0.2100591388 
0.2048509155 
0.2103464059 
0.2018236022 
0.1980206509 
0.1982398554 
0.1988227595 
0.1987158152 
0.198483167 
0.2008010854 
0.1966790302 
0.1976850062 
0.1909986533 
0.1883609492 
0.1859989762 
0.1872532899 
0.1883472263 
0.1858088423 
0.1908844698 
0.188079015 
0.1857930224 
0.1780659495 
0.1771350952 
0.1749671595 
0.1788828893 
0.1787400533 
0.176202958 
0.178378197 
0.1752460018 
0.1769171613 
0.1662486139 
0.1634290968 
0.166224239 
0.1696133887 
0.164481035 
0.1672882837 
0.1678212634 
0.1646895473 
0.1662866888 
0.1567194574 
0.1551986252 
0.1566683742 
0.1571386477 
0.1539011847 
0.1561980471 
0.1570887829 
0.1576775659 
0.1588363805 
0.146585047 
0.1457523216 
0.1462415204 
0.1483500755 
0.1481023817 
0.1483159158 
0.1475142872 
0.1487677152 
0.149815741 
0.1389834586 
0.1392659624 
0.1381020344 
0.1391552315 
0.1377358799 
0.1388400714 
0.1390418493 
0.1381686575 
0.1389018552 
0.1317528965 
0.1298492774 
0.1273527936 
0.1298213642 
0.1307620746 
0.1314260811 
0.1286634161 
0.127746617 
0.1286567169 
0.1240206926 
0.1247408184 
0.1232954712 
0.1230339497 
0.1223650381 
0.1218957915 
0.1201883756 
0.1222254701 
0.1213077954 
0.1227732312 
0.1306226195 
0.137854871 
0.1487882335 
0.1549061485 
0.1634124102 
0.1748239493 
0.1866780731 
0.1980894844 
0.2086082714 
0.2220541825 
0.2293852903 
0.2430045153 
0.2560876621 
0.271378713 
0.2823914011 
0.2956895906 
0.3049192772 
0.3178594569 
0.3234659057 
0.3351752529 
0.3432682915 
0.3539951982 
0.3570078368 
0.1164773803 
0.1148966552 
0.1161238337 
0.1141249541 
0.1150869215 
0.1150499455 
0.1132166002 
0.1149862675 
0.1167498485 
0.3576314952 
0.3530908819 
0.3610877295 
0.3583522329 
0.3565823076 
0.3559611365 
0.3570572288 
0.355533506 
0.3565063392 
0.3531954303 
0.3478890999 
0.3554164708 
0.3531309081 
0.3515551025 
0.3515679303 
0.3474500399 
0.3481565079 
0.3500578739 
0.3476652658 
0.343021351 
0.3449595226 
0.3491328987 
0.3452162472 
0.3439412094 
0.3472672986 
0.3457298891 
0.3456986811 
0.3382662862 
0.3374303003 
0.3340235821 
0.3402253981 
0.3338632103 
0.3348554479 
0.3343579621 
0.3351478929 
0.3357603331 
0.3310505879 
0.3267213461 
0.3285257525 
0.3312207829 
0.3206350695 
0.3254293164 
0.3241801336 
0.3233644469 
0.3281799435 
0.3213952444 
0.3150151699 
0.3153290822 
0.3183993388 
0.3167442346 
0.3170613067 
0.3157030649 
0.3112878524 
0.316286266 
0.3079496255 
0.3046151915 
0.3062718459 
0.3036917477 
0.3062316542 
0.3013469057 
0.3050656741 
0.3061913384 
0.3019813859 
0.2970562078 
0.2914180046 
0.2936884459 
0.2853256787 
0.2941879059 
0.2885034862 
0.2940255787 
0.2937638279 
0.2931391888 
0.2810838769 
0.281623075 
0.2810830903 
0.2775113211 
0.281328621 
0.2781530269 
0.286320221 
0.2801016493 
0.2838420448 
0.2679774102 
0.2691239786 
0.2676121807 
0.2696693594 
0.2687524177 
0.2668753855 
0.2702328972 
0.2688542916 
0.2710806517 
0.2581885444 
0.2555825267 
0.259220368 
0.2562612905 
0.2556354379 
0.253287368 
0.2582556004 
0.2583072199 
0.256944987 
0.243603526 
0.2466362909 
0.2433660528 
0.2422651705 
0.2444796042 
0.2475833051 
0.2467734786 
0.2445347089 
0.2439506551 
0.2348644067 
0.231851466 
0.2339506026 
0.2322899342 
0.2326540687 
0.2315000327 
0.2325412584 
0.2328849461 
0.2349778721 
0.2218956227 
0.2213644105 
0.2254830016 
0.2250596632 
0.2212446849 
0.2211995825 
0.2196580299 
0.218683649 
0.2188751659 
0.2161720174 
0.2130572125 
0.213332478 
0.2106125232 
0.2141451252 
0.2103283943 
0.2104689537 
0.2103186974 
0.2062170716 
0.2021018046 
0.1995424256 
0.2000562202 
0.1964563755 
0.1982295809 
0.1986975296 
0.1971730185 
0.1987837629 
0.1954159461 
0.1896748849 
0.1898312855 
0.1880479237 
0.1837786197 
0.1874562062 
0.1868631422 
0.1854300856 
0.1858818851 
0.1830400407 
0.1771699437 
0.1768910425 
0.1776904333 
0.1737426492 
0.1781043799 
0.1793250409 
0.1763009582 
0.177619589 
0.1770068574 
0.1655505845 
0.165980853 
0.1647373785 
0.1675097427 
0.1646288079 
0.1660987737 
0.1640647485 
0.1646254113 
0.1635738166 
0.1566729505 
0.1567377648 
0.1575202625 
0.1558220764 
0.1541372812 
0.1567930269 
0.1576622636 
0.1548450254 
0.1552174582 
0.1469353637 
0.1474820014 
0.1465520899 
0.147535426 
0.1462446642 
0.1503549603 
0.1499047227 
0.1483827688 
0.1452848067 
0.1378840818 
0.1377280481 
0.1364738967 
0.1401688803 
0.1385411269 
0.1394347362 
0.1410988091 
0.1383361492 
0.1387225388 
0.1294240623 
0.1284967175 
0.1312807639 
0.1314143998 
0.1323811445 
0.132854118 
0.1307671287 
0.133663348 
0.1313365541 
0.1218150817 
0.1216137314 
0.1222038475 
0.1225220499 
0.12367328 
0.1225359688 
0.1225294302 
0.1224832722 
0.1243594758 
0.117292032 
0.115332324 
0.1158395831 
0.1146450877 
0.1164196703 
0.1142260776 
0.1143340696 
0.1147245699 
0.1151404972 
0.1149420545 
0.1151071051 
0.1149605419 
0.1155367984 
0.1128881853 
0.1149825189 
0.1151953799 
0.1151903827 
0.1151447267 
0.1151072377 
0.1137919402 
0.1171967 
0.1152493132 
0.1142321545 
0.1118219489 
0.1161138267 
0.1166781095 
0.116279352 
0.1139095119 
0.1159624266 
0.115087752 
0.1157055934 
0.1135730372 
0.115306394 
0.1165824217 
0.1160695693 
0.1172972369 
0.1138539944 
0.1137574685 
0.1146996562 
0.1135895919 
0.1134525814 
0.1124769488 
0.1137514834 
0.113248505 
0.1159579774 
0.1145751034 
0.1149923029 
0.1147031536 
0.1141156975 
0.1142995871 
0.1133673316 
0.1117429049 
0.1130780954 
0.1159296151 
0.1140400726 
0.1137741934 
0.1138122144 
0.1139457007 
0.1143340422 
0.1140848435 
0.1142933456 
0.1141593148 
0.1136495445 
0.1145223512 
0.1136891377 
0.113530644 
0.1163241143 
0.1162635938 
0.117000089 
0.1143570853 
0.1161553713 
0.1155212689 
0.1175272895 
0.1155494578 
0.1153259099 
0.1158486287 
0.1176474089 
0.1151831266 
0.1138975033 
0.1179358249 
0.1153841063 
0.3560347411 
0.3579851414 
0.3597616922 
0.3577115155 
0.3575075582 
0.3537988255 
0.3540940823 
0.3593207214 
0.3627891927 
0.3512122054 
0.3543554571 
0.3558172401 
0.3512064086 
0.3549522986 
0.3479066137 
0.3547938819 
0.3524369575 
0.3553612777 
0.3478486019 
0.3482859992 
0.3482738128 
0.344752994 
0.3448384207 
0.3460419538 
0.3438093737 
0.3477182045 
0.343535268 
0.3386555378 
0.3414319567 
0.3344751622 
0.3366595119 
0.3399719386 
0.3365652626 
0.3371187182 
0.3356570147 
0.3350604137 
0.3259890973 
0.3280058476 
0.3268547704 
0.3235767298 
0.3277406279 
0.3282882213 
0.3297452891 
0.3267630373 
0.3230714947 
0.316770019 
0.3179833381 
0.3174538781 
0.3161046737 
0.3142935972 
0.3184876946 
0.3176804566 
0.317941498 
0.3164337935 
0.3049368414 
0.3031936494 
0.3035111841 
0.3028700604 
0.3045099034 
0.3042233236 
0.3050230242 
0.3069363096 
0.3073756173 
0.294833743 
0.2939477465 
0.2929039392 
0.2924786629 
0.2928021895 
0.2889208149 
0.2942496318 
0.2929947553 
0.2946035241 
0.2843252095 
0.2830480978 
0.28576793 
0.280576372 
0.2835030111 
0.2829573171 
0.2832170078 
0.2816307384 
0.2819346524 
0.2725952268 
0.2692822818 
0.272307766 
0.2705202833 
0.2682871909 
0.2690416894 
0.269067804 
0.2676845743 
0.2687705976 
0.2552317844 
0.2590740359 
0.2600748019 
0.2572293352 
0.2596086163 
0.2548008023 
0.2582009651 
0.2559325597 
0.258248574 
0.245884645 
0.2463299218 
0.2457274348 
0.246655529 
0.2446059779 
0.2449442131 
0.247994911 
0.2420747709 
0.2436928139 
0.2342309372 
0.2367246081 
0.233045126 
0.2357226844 
0.23200196 
0.2323862904 
0.2345797289 
0.2344731218 
0.2317251555 
0.2205588512 
0.2243295504 
0.2216642925 
0.2219633909 
0.2213263631 
0.2204428361 
0.2210795815 
0.2201252268 
0.2223960274 
0.2087711711 
0.2100915914 
0.213982852 
0.2095580859 
0.209005527 
0.2089114723 
0.2101537304 
0.2108752553 
0.2134861639 
0.199558459 
0.197115697 
0.1976276384 
0.1971299267 
0.1963736555 
0.1966909365 
0.1977417699 
0.1976404045 
0.2007555632 
0.1820391372 
0.1855235471 
0.1854016645 
0.1856146866 
0.188416731 
0.1870191622 
0.1883215878 
0.1853859956 
0.1881791655 
0.1727352179 
0.177061365 
0.1741122994 
0.176786317 
0.174906663 
0.1768130396 
0.1777877831 
0.1754698303 
0.1732540016 
0.1654096792 
0.166877369 
0.1653717616 
0.1648945731 
0.16478731 
0.1680520812 
0.1658205268 
0.1677540684 
0.1650101518 
0.1555105001 
0.1540440196 
0.1549444028 
0.1554554196 
0.1525857948 
0.1530272267 
0.155042922 
0.1579519021 
0.1566316995 
0.1468296191 
0.1451630659 
0.1452992925 
0.147520693 
0.1467314237 
0.1488731462 
0.1485304308 
0.1476592361 
0.1451953597 
0.1384925724 
0.1377546412 
0.1371974112 
0.140842785 
0.1364882613 
0.1383694256 
0.1382623388 
0.1376349755 
0.1368546204 
0.1281024511 
0.1314969179 
0.1318585961 
0.1298518945 
0.1289258561 
0.1280068924 
0.1276462492 
0.130369909 
0.1308528475 
0.1212033088 
0.121942247 
0.123131214 
0.1221588907 
0.1220898367 
0.1213056546 
0.1241148003 
0.1234097717 
0.1244577849 
0.3557255511 
0.3573974847 
0.3575011643 
0.3572728531 
0.3594528641 
0.3620244223 
0.3627513232 
0.3593828327 
0.3611224684 
0.3511059735 
0.3527849636 
0.3493864121 
0.3508325003 
0.3476883362 
0.3517748177 
0.3512051009 
0.3521446466 
0.3538972565 
0.3464802619 
0.3440686849 
0.3443167003 
0.3468746928 
0.3409166135 
0.3458469918 
0.3479397257 
0.3431229379 
0.3479791686 
0.3362827145 
0.3347469994 
0.3350452486 
0.3407226812 
0.3377993657 
0.3365878537 
0.3391333489 
0.3353455909 
0.339521369 
0.325662592 
0.325297057 
0.3281751746 
0.3269069722 
0.3298924414 
0.3254461631 
0.3322999754 
0.3257746223 
0.3288096954 
0.3121014002 
0.3130973764 
0.3163668539 
0.3146461 
0.3178232663 
0.3176852744 
0.3176368592 
0.3151022304 
0.317685242 
0.3067698199 
0.3084693268 
0.3077372653 
0.3065091022 
0.3057822216 
0.3063408951 
0.3093346613 
0.3053298412 
0.3067211928 
0.2939151029 
0.2942621272 
0.2966183396 
0.2979842796 
0.2971678787 
0.2910134648 
0.2980109874 
0.2961304535 
0.30021994 
0.2819527846 
0.2799433028 
0.2827909612 
0.2840089029 
0.2831613566 
0.2794130847 
0.2809986928 
0.2796036104 
0.2881599767 
0.2713308993 
0.2670237722 
0.2712705929 
0.2710109307 
0.2702874548 
0.2697752202 
0.2688401719 
0.2685357201 
0.2696449075 
0.2598653066 
0.2555272078 
0.2588649 
0.2600062942 
0.259918632 
0.2569721371 
0.2574583891 
0.2596427608 
0.257264674 
0.2463223049 
0.2454662861 
0.2479827107 
0.247168303 
0.24612885 
0.2422975524 
0.2496444411 
0.2458811425 
0.2445321093 
0.2331283828 
0.2327540641 
0.2363792642 
0.2301734501 
0.2319159458 
0.2343134962 
0.2341658697 
0.2335828798 
0.2352704672 
0.2221515506 
0.220132592 
0.2229212877 
0.2195135473 
0.2240702265 
0.2216974445 
0.2236789117 
0.2239128295 
0.2212769952 
0.2096530837 
0.2094069429 
0.2100207406 
0.2048564612 
0.2089728412 
0.2123633553 
0.2116145168 
0.2096792209 
0.2097206604 
0.2015114944 
0.2007684322 
0.1975742584 
0.1986613948 
0.1945060521 
0.1986490242 
0.1975487304 
0.1979194797 
0.1995789329 
0.1831289293 
0.1873631808 
0.1840309337 
0.1842362263 
0.1849852916 
0.183803688 
0.1889620378 
0.1864670589 
0.1849733189 
0.1753240733 
0.1789217619 
0.1782709646 
0.1778229235 
0.1741285078 
0.1764641572 
0.1771538092 
0.1768669942 
0.1763244742 
0.16607456 
0.1669271875 
0.1665258031 
0.1651861698 
0.1651822418 
0.1668192931 
0.1669371347 
0.1677667392 
0.1669918354 
0.1569263372 
0.1561102693 
0.1578281182 
0.1584570965 
0.15632602 
0.1546671228 
0.1551635623 
0.1556529827 
0.1562647667 
0.1448175058 
0.1449459962 
0.1470627503 
0.146887536 
0.1486205416 
0.1480694669 
0.1477905817 
0.1488589207 
0.1456352308 
0.1397126888 
0.1389480863 
0.1391272191 
0.1367403174 
0.1351212562 
0.1358976955 
0.1401128119 
0.1379236165 
0.1397623589 
0.1323171864 
0.1303213161 
0.1312960196 
0.130977491 
0.1299276435 
0.1297967148 
0.1301776624 
0.1317567704 
0.1309402079 
0.1221119353 
0.122745572 
0.1198577049 
0.1215634647 
0.1227621606 
0.1197249067 
0.1261458198 
0.123939953 
0.1234323673 
0.3610200228 
0.3523405157 
0.3441166281 
0.3350730435 
0.3275423894 
0.3206682215 
0.3069428293 
0.2949415873 
0.284357897 
0.2672537327 
0.2584498339 
0.2491874423 
0.2332694212 
0.2202841921 
0.2075896447 
0.2000542102 
0.1865969581 
0.1777399615 
0.1688842021 
0.1589468787 
0.1466115521 
0.1359773129 
0.1287917489 
0.1232722278 
0.3588533213 
0.35233121 
0.346939475 
0.3368310023 
0.3271892734 
0.3173462693 
0.3042064541 
0.2958685121 
0.2864821376 
0.2734970061 
0.2589516151 
0.2468996656 
0.2322216107 
0.222200329 
0.2085728841 
0.197229895 
0.1866356094 
0.1794069641 
0.1663303239 
0.1554799498 
0.1485931135 
0.142162134 
0.1302379304 
0.1227720837 
0.3566949882 
0.3508944102 
0.3414399483 
0.3357630626 
0.3224571121 
0.317086484 
0.3058102348 
0.2930164996 
0.2848729383 
0.2707837311 
0.2609054064 
0.2468084116 
0.2331316408 
0.2202990547 
0.207388199 
0.1971011566 
0.1885571987 
0.1754133477 
0.1666360419 
0.1547772602 
0.1457620197 
0.1394141368 
0.1303109967 
0.1228692933 
0.3569347405 
0.3528712261 
0.3429115551 
0.3373770243 
0.3289381734 
0.3165212024 
0.3065782598 
0.2957700745 
0.2810177012 
0.2705097 
0.2588426646 
0.2470218896 
0.2321263024 
0.2220207185 
0.2094946294 
0.1983566506 
0.188737667 
0.1793575669 
0.165230499 
0.155039485 
0.1472543647 
0.1402075823 
0.1291457958 
0.1215425829 
0.3601038186 
0.3588712272 
0.3463032649 
0.3409865081 
0.3303171957 
0.315525136 
0.3067584175 
0.2948906617 
0.2822463927 
0.2717481906 
0.2577749276 
0.2461174514 
0.2320973009 
0.2213958421 
0.2107598308 
0.1938346985 
0.1877614774 
0.178775248 
0.1661547279 
0.1530429092 
0.145453823 
0.1380134187 
0.1283202489 
0.1216232409 
0.3555788525 
0.3526991101 
0.3462586619 
0.3415417318 
0.3239464257 
0.3155874664 
0.3033000061 
0.2911151544 
0.2840235082 
0.2702117153 
0.2606866981 
0.2435808838 
0.2329042884 
0.2201344325 
0.2063331267 
0.1936212274 
0.1865439476 
0.1764915883 
0.1629324448 
0.1530942986 
0.1449057302 
0.1366141389 
0.1296731955 
0.1222050153 
0.3607450177 
0.3492059852 
0.343347879 
0.3382422281 
0.3246600427 
0.3193392316 
0.3052346075 
0.2919072822 
0.2801927768 
0.2683960547 
0.2548885042 
0.2441645724 
0.2339181922 
0.2209015108 
0.2081702211 
0.1971919457 
0.1875027123 
0.1770327588 
0.1658409321 
0.1536811853 
0.1448660628 
0.1358660932 
0.1278861698 
0.1214763432 
0.3613114455 
0.3576495531 
0.3477381101 
0.3378517513 
0.3343119558 
0.3226851976 
0.3069671416 
0.2980107588 
0.2861806766 
0.2707660366 
0.2561520386 
0.2481850167 
0.2376189061 
0.2207297926 
0.2098364398 
0.1970222742 
0.1890589886 
0.1768506355 
0.1653355309 
0.1560139184 
0.1467324834 
0.1407258928 
0.1315828218 
0.1238004201 
0.3582945722 
0.3558404282 
0.3407562645 
0.335495021 
0.325475667 
0.3190688058 
0.3061218956 
0.297381726 
0.2811300339 
0.2717903956 
0.2577732008 
0.2426420544 
0.2332909444 
0.2224841057 
0.2118297218 
0.1972403176 
0.1907822546 
0.1743250281 
0.1653443101 
0.1561895188 
0.1441147612 
0.1380501801 
0.1323417616 
0.1240505287 
0.355799127 
0.3474475805 
0.3469844799 
0.3365711693 
0.3248263643 
0.3192449568 
0.3121150758 
0.2979687953 
0.2814764664 
0.2697311308 
0.2570851068 
0.2460903435 
0.2334923033 
0.2196748359 
0.2087758403 
0.1980936254 
0.1914067339 