# vtk DataFile Version 3.0
MOAB 4.1.0pre
ASCII
DATASET UNSTRUCTURED_GRID
POINTS 3146 double
0 -1 -1
0.4 -1 -1
0.8 -1 -1
1.2 -1 -1
1.6 -1 -1
2 -1 -1
2.4 -1 -1
2.8 -1 -1
3.2 -1 -1
3.6 -1 -1
4 -1 -1
4.4 -1 -1
4.8 -1 -1
5.2 -1 -1
5.6 -1 -1
6 -1 -1
6.4 -1 -1
6.8 -1 -1
7.2 -1 -1
7.6 -1 -1
8 -1 -1
8.4 -1 -1
8.8 -1 -1
9.2 -1 -1
9.6 -1 -1
10 -1 -1
0 -0.8 -1
0.4 -0.8 -1
0.8 -0.8 -1
1.2 -0.8 -1
1.6 -0.8 -1
2 -0.8 -1
2.4 -0.8 -1
2.8 -0.8 -1
3.2 -0.8 -1
3.6 -0.8 -1
4 -0.8 -1
4.4 -0.8 -1
4.8 -0.8 -1
5.2 -0.8 -1
5.6 -0.8 -1
6 -0.8 -1
6.4 -0.8 -1
6.8 -0.8 -1
7.2 -0.8 -1
7.6 -0.8 -1
8 -0.8 -1
8.4 -0.8 -1
8.8 -0.8 -1
9.2 -0.8 -1
9.6 -0.8 -1
10 -0.8 -1
0 -0.6 -1
0.4 -0.6 -1
0.8 -0.6 -1
1.2 -0.6 -1
1.6 -0.6 -1
2 -0.6 -1
2.4 -0.6 -1
2.8 -0.6 -1
3.2 -0.6 -1
3.6 -0.6 -1
4 -0.6 -1
4.4 -0.6 -1
4.8 -0.6 -1
5.2 -0.6 -1
5.6 -0.6 -1
6 -0.6 -1
6.4 -0.6 -1
6.8 -0.6 -1
7.2 -0.6 -1
7.6 -0.6 -1
8 -0.6 -1
8.4 -0.6 -1
8.8 -0.6 -1
9.2 -0.6 -1
9.6 -0.6 -1
10 -0.6 -1
0 -0.4 -1
0.4 -0.4 -1
0.8 -0.4 -1
1.2 -0.4 -1
1.6 -0.4 -1
2 -0.4 -1
2.4 -0.4 -1
2.8 -0.4 -1
3.2 -0.4 -1
3.6 -0.4 -1
4 -0.4 -1
4.4 -0.4 -1
4.8 -0.4 -1
5.2 -0.4 -1
5.6 -0.4 -1
6 -0.4 -1
6.4 -0.4 -1
6.8 -0.4 -1
7.2 -0.4 -1
7.6 -0.4 -1
8 -0.4 -1
8.4 -0.4 -1
8.8 -0.4 -1
9.2 -0.4 -1
9.6 -0.4 -1
10 -0.4 -1
0 -0.2 -1
0.4 -0.2 -1
0.8 -0.2 -1
1.2 -0.2 -1
1.6 -0.2 -1
2 -0.2 -1
2.4 -0.2 -1
2.8 -0.2 -1
3.2 -0.2 -1
3.6 -0.2 -1
4 -0.2 -1
4.4 -0.2 -1
4.8 -0.2 -1
5.2 -0.2 -1
5.6 -0.2 -1
6 -0.2 -1
6.4 -0.2 -1
6.8 -0.2 -1
7.2 -0.2 -1
7.6 -0.2 -1
8 -0.2 -1
8.4 -0.2 -1
8.8 -0.2 -1
9.2 -0.2 -1
9.6 -0.2 -1
10 -0.2 -1
0 0 -1
0.4 0 -1
0.8 0 -1
1.2 0 -1
1.6 0 -1
2 0 -1
2.4 0 -1
2.8 0 -1
3.2 0 -1
3.6 0 -1
4 0 -1
4.4 0 -1
4.8 0 -1
5.2 0 -1
5.6 0 -1
6 0 -1
6.4 0 -1
6.8 0 -1
7.2 0 -1
7.6 0 -1
8 0 -1
8.4 0 -1
8.8 0 -1
9.2 0 -1
9.6 0 -1
10 0 -1
0 0.2 -1
0.4 0.2 -1
0.8 0.2 -1
1.2 0.2 -1
1.6 0.2 -1
2 0.2 -1
2.4 0.2 -1
2.8 0.2 -1
3.2 0.2 -1
3.6 0.2 -1
4 0.2 -1
4.4 0.2 -1
4.8 0.2 -1
5.2 0.2 -1
5.6 0.2 -1
6 0.2 -1
6.4 0.2 -1
6.8 0.2 -1
7.2 0.2 -1
7.6 0.2 -1
8 0.2 -1
8.4 0.2 -1
8.8 0.2 -1
9.2 0.2 -1
9.6 0.2 -1
10 0.2 -1
0 0.4 -1
0.4 0.4 -1
0.8 0.4 -1
1.2 0.4 -1
1.6 0.4 -1
2 0.4 -1
2.4 0.4 -1
2.8 0.4 -1
3.2 0.4 -1
3.6 0.4 -1
4 0.4 -1
4.4 0.4 -1
4.8 0.4 -1
5.2 0.4 -1
5.6 0.4 -1
6 0.4 -1
6.4 0.4 -1
6.8 0.4 -1
7.2 0.4 -1
7.6 0.4 -1
8 0.4 -1
8.4 0.4 -1
8.8 0.4 -1
9.2 0.4 -1
9.6 0.4 -1
10 0.4 -1
0 0.6 -1
0.4 0.6 -1
0.8 0.6 -1
1.2 0.6 -1
1.6 0.6 -1
2 0.6 -1
2.4 0.6 -1
2.8 0.6 -1
3.2 0.6 -1
3.6 0.6 -1
4 0.6 -1
4.4 0.6 -1
4.8 0.6 -1
5.2 0.6 -1
5.6 0.6 -1
6 0.6 -1
6.4 0.6 -1
6.8 0.6 -1
7.2 0.6 -1
7.6 0.6 -1
8 0.6 -1
8.4 0.6 -1
8.8 0.6 -1
9.2 0.6 -1
9.6 0.6 -1
10 0.6 -1
0 0.8 -1
0.4 0.8 -1
0.8 0.8 -1
1.2 0.8 -1
1.6 0.8 -1
2 0.8 -1
2.4 0.8 -1
2.8 0.8 -1
3.2 0.8 -1
3.6 0.8 -1
4 0.8 -1
4.4 0.8 -1
4.8 0.8 -1
5.2 0.8 -1
5.6 0.8 -1
6 0.8 -1
6.4 0.8 -1
6.8 0.8 -1
7.2 0.8 -1
7.6 0.8 -1
8 0.8 -1
8.4 0.8 -1
8.8 0.8 -1
9.2 0.8 -1
9.6 0.8 -1
10 0.8 -1
0 1 -1
0.4 1 -1
0.8 1 -1
1.2 1 -1
1.6 1 -1
2 1 -1
2.4 1 -1
2.8 1 -1
3.2 1 -1
3.6 1 -1
4 1 -1
4.4 1 -1
4.8 1 -1
5.2 1 -1
5.6 1 -1
6 1 -1
6.4 1 -1
6.8 1 -1
7.2 1 -1
7.6 1 -1
8 1 -1
8.4 1 -1
8.8 1 -1
9.2 1 -1
9.6 1 -1
10 1 -1
0 -1 -0.8
0.4 -1 -0.8
0.8 -1 -0.8
1.2 -1 -0.8
1.6 -1 -0.8
2 -1 -0.8
2.4 -1 -0.8
2.8 -1 -0.8
3.2 -1 -0.8
3.6 -1 -0.8
4 -1 -0.8
4.4 -1 -0.8
4.8 -1 -0.8
5.2 -1 -0.8
5.6 -1 -0.8
6 -1 -0.8
6.4 -1 -0.8
6.8 -1 -0.8
7.2 -1 -0.8
7.6 -1 -0.8
8 -1 -0.8
8.4 -1 -0.8
8.8 -1 -0.8
9.2 -1 -0.8
9.6 -1 -0.8
10 -1 -0.8
0 -0.8 -0.8
0.4 -0.8 -0.8
0.8 -0.8 -0.8
1.2 -0.8 -0.8
1.6 -0.8 -0.8
2 -0.8 -0.8
2.4 -0.8 -0.8
2.8 -0.8 -0.8
3.2 -0.8 -0.8
3.6 -0.8 -0.8
4 -0.8 -0.8
4.4 -0.8 -0.8
4.8 -0.8 -0.8
5.2 -0.8 -0.8
5.6 -0.8 -0.8
6 -0.8 -0.8
6.4 -0.8 -0.8
6.8 -0.8 -0.8
7.2 -0.8 -0.8
7.6 -0.8 -0.8
8 -0.8 -0.8
8.4 -0.8 -0.8
8.8 -0.8 -0.8
9.2 -0.8 -0.8
9.6 -0.8 -0.8
10 -0.8 -0.8
0 -0.6 -0.8
0.4 -0.6 -0.8
0.8 -0.6 -0.8
1.2 -0.6 -0.8
1.6 -0.6 -0.8
2 -0.6 -0.8
2.4 -0.6 -0.8
2.8 -0.6 -0.8
3.2 -0.6 -0.8
3.6 -0.6 -0.8
4 -0.6 -0.8
4.4 -0.6 -0.8
4.8 -0.6 -0.8
5.2 -0.6 -0.8
5.6 -0.6 -0.8
6 -0.6 -0.8
6.4 -0.6 -0.8
6.8 -0.6 -0.8
7.2 -0.6 -0.8
7.6 -0.6 -0.8
8 -0.6 -0.8
8.4 -0.6 -0.8
8.8 -0.6 -0.8
9.2 -0.6 -0.8
9.6 -0.6 -0.8
10 -0.6 -0.8
0 -0.4 -0.8
0.4 -0.4 -0.8
0.8 -0.4 -0.8
1.2 -0.4 -0.8
1.6 -0.4 -0.8
2 -0.4 -0.8
2.4 -0.4 -0.8
2.8 -0.4 -0.8
3.2 -0.4 -0.8
3.6 -0.4 -0.8
4 -0.4 -0.8
4.4 -0.4 -0.8
4.8 -0.4 -0.8
5.2 -0.4 -0.8
5.6 -0.4 -0.8
6 -0.4 -0.8
6.4 -0.4 -0.8
6.8 -0.4 -0.8
7.2 -0.4 -0.8
7.6 -0.4 -0.8
8 -0.4 -0.8
8.4 -0.4 -0.8
8.8 -0.4 -0.8
9.2 -0.4 -0.8
9.6 -0.4 -0.8
10 -0.4 -0.8
0 -0.2 -0.8
0.4 -0.2 -0.8
0.8 -0.2 -0.8
1.2 -0.2 -0.8
1.6 -0.2 -0.8
2 -0.2 -0.8
2.4 -0.2 -0.8
2.8 -0.2 -0.8
3.2 -0.2 -0.8
3.6 -0.2 -0.8
4 -0.2 -0.8
4.4 -0.2 -0.8
4.8 -0.2 -0.8
5.2 -0.2 -0.8
5.6 -0.2 -0.8
6 -0.2 -0.8
6.4 -0.2 -0.8
6.8 -0.2 -0.8
7.2 -0.2 -0.8
7.6 -0.2 -0.8
8 -0.2 -0.8
8.4 -0.2 -0.8
8.8 -0.2 -0.8
9.2 -0.2 -0.8
9.6 -0.2 -0.8
10 -0.2 -0.8
0 0 -0.8
0.4 0 -0.8
0.8 0 -0.8
1.2 0 -0.8
1.6 0 -0.8
2 0 -0.8
2.4 0 -0.8
2.8 0 -0.8
3.2 0 -0.8
3.6 0 -0.8
4 0 -0.8
4.4 0 -0.8
4.8 0 -0.8
5.2 0 -0.8
5.6 0 -0.8
6 0 -0.8
6.4 0 -0.8
6.8 0 -0.8
7.2 0 -0.8
7.6 0 -0.8
8 0 -0.8
8.4 0 -0.8
8.8 0 -0.8
9.2 0 -0.8
9.6 0 -0.8
10 0 -0.8
0 0.2 -0.8
0.4 0.2 -0.8
0.8 0.2 -0.8
1.2 0.2 -0.8
1.6 0.2 -0.8
2 0.2 -0.8
2.4 0.2 -0.8
2.8 0.2 -0.8
3.2 0.2 -0.8
3.6 0.2 -0.8
4 0.2 -0.8
4.4 0.2 -0.8
4.8 0.2 -0.8
5.2 0.2 -0.8
5.6 0.2 -0.8
6 0.2 -0.8
6.4 0.2 -0.8
6.8 0.2 -0.8
7.2 0.2 -0.8
7.6 0.2 -0.8
8 0.2 -0.8
8.4 0.2 -0.8
8.8 0.2 -0.8
9.2 0.2 -0.8
9.6 0.2 -0.8
10 0.2 -0.8
0 0.4 -0.8
0.4 0.4 -0.8
0.8 0.4 -0.8
1.2 0.4 -0.8
1.6 0.4 -0.8
2 0.4 -0.8
2.4 0.4 -0.8
2.8 0.4 -0.8
3.2 0.4 -0.8
3.6 0.4 -0.8
4 0.4 -0.8
4.4 0.4 -0.8
4.8 0.4 -0.8
5.2 0.4 -0.8
5.6 0.4 -0.8
6 0.4 -0.8
6.4 0.4 -0.8
6.8 0.4 -0.8
7.2 0.4 -0.8
7.6 0.4 -0.8
8 0.4 -0.8
8.4 0.4 -0.8
8.8 0.4 -0.8
9.2 0.4 -0.8
9.6 0.4 -0.8
10 0.4 -0.8
0 0.6 -0.8
0.4 0.6 -0.8
0.8 0.6 -0.8
1.2 0.6 -0.8
1.6 0.6 -0.8
2 0.6 -0.8
2.4 0.6 -0.8
2.8 0.6 -0.8
3.2 0.6 -0.8
3.6 0.6 -0.8
4 0.6 -0.8
4.4 0.6 -0.8
4.8 0.6 -0.8
5.2 0.6 -0.8
5.6 0.6 -0.8
6 0.6 -0.8
6.4 0.6 -0.8
6.8 0.6 -0.8
7.2 0.6 -0.8
7.6 0.6 -0.8
8 0.6 -0.8
8.4 0.6 -0.8
8.8 0.6 -0.8
9.2 0.6 -0.8
9.6 0.6 -0.8
10 0.6 -0.8
0 0.8 -0.8
0.4 0.8 -0.8
0.8 0.8 -0.8
1.2 0.8 -0.8
1.6 0.8 -0.8
2 0.8 -0.8
2.4 0.8 -0.8
2.8 0.8 -0.8
3.2 0.8 -0.8
3.6 0.8 -0.8
4 0.8 -0.8
4.4 0.8 -0.8
4.8 0.8 -0.8
5.2 0.8 -0.8
5.6 0.8 -0.8
6 0.8 -0.8
6.4 0.8 -0.8
6.8 0.8 -0.8
7.2 0.8 -0.8
7.6 0.8 -0.8
8 0.8 -0.8
8.4 0.8 -0.8
8.8 0.8 -0.8
9.2 0.8 -0.8
9.6 0.8 -0.8
10 0.8 -0.8
0 1 -0.8
0.4 1 -0.8
0.8 1 -0.8
1.2 1 -0.8
1.6 1 -0.8
2 1 -0.8
2.4 1 -0.8
2.8 1 -0.8
3.2 1 -0.8
3.6 1 -0.8
4 1 -0.8
4.4 1 -0.8
4.8 1 -0.8
5.2 1 -0.8
5.6 1 -0.8
6 1 -0.8
6.4 1 -0.8
6.8 1 -0.8
7.2 1 -0.8
7.6 1 -0.8
8 1 -0.8
8.4 1 -0.8
8.8 1 -0.8
9.2 1 -0.8
9.6 1 -0.8
10 1 -0.8
0 -1 -0.6
0.4 -1 -0.6
0.8 -1 -0.6
1.2 -1 -0.6
1.6 -1 -0.6
2 -1 -0.6
2.4 -1 -0.6
2.8 -1 -0.6
3.2 -1 -0.6
3.6 -1 -0.6
4 -1 -0.6
4.4 -1 -0.6
4.8 -1 -0.6
5.2 -1 -0.6
5.6 -1 -0.6
6 -1 -0.6
6.4 -1 -0.6
6.8 -1 -0.6
7.2 -1 -0.6
7.6 -1 -0.6
8 -1 -0.6
8.4 -1 -0.6
8.8 -1 -0.6
9.2 -1 -0.6
9.6 -1 -0.6
10 -1 -0.6
0 -0.8 -0.6
0.4 -0.8 -0.6
0.8 -0.8 -0.6
1.2 -0.8 -0.6
1.6 -0.8 -0.6
2 -0.8 -0.6
2.4 -0.8 -0.6
2.8 -0.8 -0.6
3.2 -0.8 -0.6
3.6 -0.8 -0.6
4 -0.8 -0.6
4.4 -0.8 -0.6
4.8 -0.8 -0.6
5.2 -0.8 -0.6
5.6 -0.8 -0.6
6 -0.8 -0.6
6.4 -0.8 -0.6
6.8 -0.8 -0.6
7.2 -0.8 -0.6
7.6 -0.8 -0.6
8 -0.8 -0.6
8.4 -0.8 -0.6
8.8 -0.8 -0.6
9.2 -0.8 -0.6
9.6 -0.8 -0.6
10 -0.8 -0.6
0 -0.6 -0.6
0.4 -0.6 -0.6
0.8 -0.6 -0.6
1.2 -0.6 -0.6
1.6 -0.6 -0.6
2 -0.6 -0.6
2.4 -0.6 -0.6
2.8 -0.6 -0.6
3.2 -0.6 -0.6
3.6 -0.6 -0.6
4 -0.6 -0.6
4.4 -0.6 -0.6
4.8 -0.6 -0.6
5.2 -0.6 -0.6
5.6 -0.6 -0.6
6 -0.6 -0.6
6.4 -0.6 -0.6
6.8 -0.6 -0.6
7.2 -0.6 -0.6
7.6 -0.6 -0.6
8 -0.6 -0.6
8.4 -0.6 -0.6
8.8 -0.6 -0.6
9.2 -0.6 -0.6
9.6 -0.6 -0.6
10 -0.6 -0.6
0 -0.4 -0.6
0.4 -0.4 -0.6
0.8 -0.4 -0.6
1.2 -0.4 -0.6
1.6 -0.4 -0.6
2 -0.4 -0.6
2.4 -0.4 -0.6
2.8 -0.4 -0.6
3.2 -0.4 -0.6
3.6 -0.4 -0.6
4 -0.4 -0.6
4.4 -0.4 -0.6
4.8 -0.4 -0.6
5.2 -0.4 -0.6
5.6 -0.4 -0.6
6 -0.4 -0.6
6.4 -0.4 -0.6
6.8 -0.4 -0.6
7.2 -0.4 -0.6
7.6 -0.4 -0.6
8 -0.4 -0.6
8.4 -0.4 -0.6
8.8 -0.4 -0.6
9.2 -0.4 -0.6
9.6 -0.4 -0.6
10 -0.4 -0.6
0 -0.2 -0.6
0.4 -0.2 -0.6
0.8 -0.2 -0.6
1.2 -0.2 -0.6
1.6 -0.2 -0.6
2 -0.2 -0.6
2.4 -0.2 -0.6
2.8 -0.2 -0.6
3.2 -0.2 -0.6
3.6 -0.2 -0.6
4 -0.2 -0.6
4.4 -0.2 -0.6
4.8 -0.2 -0.6
5.2 -0.2 -0.6
5.6 -0.2 -0.6
6 -0.2 -0.6
6.4 -0.2 -0.6
6.8 -0.2 -0.6
7.2 -0.2 -0.6
7.6 -0.2 -0.6
8 -0.2 -0.6
8.4 -0.2 -0.6
8.8 -0.2 -0.6
9.2 -0.2 -0.6
9.6 -0.2 -0.6
10 -0.2 -0.6
0 0 -0.6
0.4 0 -0.6
0.8 0 -0.6
1.2 0 -0.6
1.6 0 -0.6
2 0 -0.6
2.4 0 -0.6
2.8 0 -0.6
3.2 0 -0.6
3.6 0 -0.6
4 0 -0.6
4.4 0 -0.6
4.8 0 -0.6
5.2 0 -0.6
5.6 0 -0.6
6 0 -0.6
6.4 0 -0.6
6.8 0 -0.6
7.2 0 -0.6
7.6 0 -0.6
8 0 -0.6
8.4 0 -0.6
8.8 0 -0.6
9.2 0 -0.6
9.6 0 -0.6
10 0 -0.6
0 0.2 -0.6
0.4 0.2 -0.6
0.8 0.2 -0.6
1.2 0.2 -0.6
1.6 0.2 -0.6
2 0.2 -0.6
2.4 0.2 -0.6
2.8 0.2 -0.6
3.2 0.2 -0.6
3.6 0.2 -0.6
4 0.2 -0.6
4.4 0.2 -0.6
4.8 0.2 -0.6
5.2 0.2 -0.6
5.6 0.2 -0.6
6 0.2 -0.6
6.4 0.2 -0.6
6.8 0.2 -0.6
7.2 0.2 -0.6
7.6 0.2 -0.6
8 0.2 -0.6
8.4 0.2 -0.6
8.8 0.2 -0.6
9.2 0.2 -0.6
9.6 0.2 -0.6
10 0.2 -0.6
0 0.4 -0.6
0.4 0.4 -0.6
0.8 0.4 -0.6
1.2 0.4 -0.6
1.6 0.4 -0.6
2 0.4 -0.6
2.4 0.4 -0.6
2.8 0.4 -0.6
3.2 0.4 -0.6
3.6 0.4 -0.6
4 0.4 -0.6
4.4 0.4 -0.6
4.8 0.4 -0.6
5.2 0.4 -0.6
5.6 0.4 -0.6
6 0.4 -0.6
6.4 0.4 -0.6
6.8 0.4 -0.6
7.2 0.4 -0.6
7.6 0.4 -0.6
8 0.4 -0.6
8.4 0.4 -0.6
8.8 0.4 -0.6
9.2 0.4 -0.6
9.6 0.4 -0.6
10 0.4 -0.6
0 0.6 -0.6
0.4 0.6 -0.6
0.8 0.6 -0.6
1.2 0.6 -0.6
1.6 0.6 -0.6
2 0.6 -0.6
2.4 0.6 -0.6
2.8 0.6 -0.6
3.2 0.6 -0.6
3.6 0.6 -0.6
4 0.6 -0.6
4.4 0.6 -0.6
4.8 0.6 -0.6
5.2 0.6 -0.6
5.6 0.6 -0.6
6 0.6 -0.6
6.4 0.6 -0.6
6.8 0.6 -0.6
7.2 0.6 -0.6
7.6 0.6 -0.6
8 0.6 -0.6
8.4 0.6 -0.6
8.8 0.6 -0.6
9.2 0.6 -0.6
9.6 0.6 -0.6
10 0.6 -0.6
0 0.8 -0.6
0.4 0.8 -0.6
0.8 0.8 -0.6
1.2 0.8 -0.6
1.6 0.8 -0.6
2 0.8 -0.6
2.4 0.8 -0.6
2.8 0.8 -0.6
3.2 0.8 -0.6
3.6 0.8 -0.6
4 0.8 -0.6
4.4 0.8 -0.6
4.8 0.8 -0.6
5.2 0.8 -0.6
5.6 0.8 -0.6
6 0.8 -0.6
6.4 0.8 -0.6
6.8 0.8 -0.6
7.2 0.8 -0.6
7.6 0.8 -0.6
8 0.8 -0.6
8.4 0.8 -0.6
8.8 0.8 -0.6
9.2 0.8 -0.6
9.6 0.8 -0.6
10 0.8 -0.6
0 1 -0.6
0.4 1 -0.6
0.8 1 -0.6
1.2 1 -0.6
[...]
CELL_DATA 2500
SCALARS TALLY_TAG double 1
LOOKUP_TABLE default
0.362264 
0.362115 
0.360636 
0.357495 
0.360752 
0.35708 
0.359392 
0.360066 
0.362564 
0.359969 
0.358657 
0.360208 
0.361168 
0.359118 
0.359943 
0.35905 
0.357839 
0.354895 
0.359366 
0.363919 
0.361152 
0.361413 
0.360485 
0.360713 
0.361362 
0.360931 
0.360774 
0.359874 
0.359603 
0.358994 
0.360063 
0.36003 
0.359827 
0.360045 
0.361403 
0.363845 
0.358301 
0.359484 
0.360238 
0.357956 
0.361978 
0.362807 
0.364099 
0.36131 
0.361985 
0.360533 
0.361798 
0.360906 
0.35978 
0.360763 
0.362585 
0.363725 
0.359171 
0.358622 
0.358126 
0.360838 
0.3631 
0.36408 
0.361707 
0.361458 
0.36332 
0.360326 
0.363445 
0.361318 
0.359408 
0.358383 
0.361918 
0.363455 
0.361527 
0.361776 
0.362861 
0.361537 
0.361116 
0.358489 
0.361227 
0.363259 
0.359702 
0.359633 
0.359446 
0.364081 
0.360644 
0.359204 
0.36445 
0.360524 
0.363816 
0.361454 
0.359871 
0.35801 
0.361875 
0.362685 
0.361641 
0.360942 
0.359985 
0.360854 
0.360272 
0.361358 
0.364408 
0.363798 
0.362497 
0.360929 
0.355495 
0.353984 
0.352654 
0.35579 
0.356031 
0.351134 
0.354024 
0.352866 
0.356723 
0.356643 
0.352921 
0.353704 
0.355897 
0.354746 
0.350908 
0.355911 
0.357435 
0.355939 
0.357285 
0.357328 
0.354044 
0.355385 
0.354257 
0.355143 
0.358014 
0.354066 
0.3568 
0.354478 
0.356213 
0.355938 
0.35589 
0.354837 
0.35441 
0.355093 
0.35639 
0.356358 
0.35621 
0.35583 
0.358862 
0.354246 
0.356168 
0.352313 
0.353256 
0.353028 
0.354383 
0.358369 
0.358678 
0.35755 
0.357021 
0.357101 
0.355661 
0.355042 
0.353975 
0.351089 
0.354445 
0.356911 
0.358575 
0.357264 
0.35858 
0.356975 
0.354933 
0.357465 
0.354038 
0.355418 
0.358685 
0.354852 
0.35464 
0.356326 
0.354953 
0.358091 
0.352285 
0.356419 
0.357338 
0.354497 
0.356291 
0.357412 
0.356359 
0.357591 
0.356314 
0.355278 
0.355087 
0.354082 
0.361747 
0.358619 
0.356277 
0.354776 
0.354388 
0.353737 
0.355078 
0.354959 
0.358865 
0.357379 
0.354277 
0.357981 
0.354525 
0.353902 
0.357184 
0.358247 
0.355757 
0.357667 
0.352605 
0.352295 
0.345775 
0.346021 
0.352068 
0.350913 
0.352169 
0.350799 
0.347799 
0.351152 
0.348951 
0.351602 
0.352358 
0.349398 
0.347788 
0.349379 
0.35446 
0.351616 
0.347902 
0.353071 
0.348764 
0.353966 
0.347402 
0.350156 
0.348994 
0.350998 
0.350739 
0.349758 
0.350753 
0.35024 
0.351261 
0.346894 
0.350802 
0.345333 
0.351842 
0.354202 
0.351565 
0.350185 
0.348246 
0.347196 
0.347816 
0.348762 
0.344097 
0.347352 
0.349986 
0.353179 
0.355245 
0.353009 
0.348929 
0.347383 
0.350009 
0.345629 
0.34664 
0.34871 
0.349286 
0.351476 
0.35032 
0.347298 
0.350999 
0.348587 
0.347683 
0.349143 
0.352982 
0.353013 
0.353078 
0.34999 
0.350443 
0.349147 
0.34731 
0.347832 
0.348783 
0.348099 
0.350172 
0.350931 
0.350168 
0.348741 
0.349259 
0.349632 
0.350115 
0.352126 
0.347589 
0.347904 
0.351556 
0.349257 
0.348277 
0.349599 
0.345822 
0.349978 
0.349398 
0.351158 
0.349925 
0.350406 
0.350391 
0.346531 
0.346745 
0.349165 
0.347763 
0.347633 
0.349691 
0.348895 
0.343764 
0.340105 
0.34005 
0.339436 
0.346159 
0.342972 
0.341425 
0.343731 
0.3425 
0.339199 
0.343795 
0.342436 
0.342916 
0.339724 
0.344293 
0.340785 
0.344439 
0.339843 
0.340077 
0.340023 
0.340517 
0.342238 
0.339412 
0.338832 
0.341644 
0.340978 
0.339414 
0.342874 
0.343779 
0.341467 
0.338593 
0.340437 
0.342298 
0.337711 
0.341175 
0.344742 
0.341602 
0.338312 
0.34097 
0.343016 
0.340897 
0.342841 
0.340386 
0.340716 
0.341895 
0.345398 
0.344329 
0.340117 
0.342656 
0.342114 
0.34102 
0.343846 
0.340317 
0.341327 
0.341419 
0.340606 
0.343663 
0.341663 
0.338389 
0.340477 
0.342121 
0.341916 
0.343547 
0.342456 
0.343877 
0.340023 
0.343429 
0.341421 
0.339738 
0.339368 
0.341256 
0.339442 
0.339656 
0.340769 
0.340929 
0.341162 
0.340622 
0.340029 
0.341807 
0.341032 
0.341941 
0.342086 
0.341621 
0.34159 
0.343291 
0.341626 
0.340748 
0.342218 
0.34216 
0.342284 
0.343413 
0.343984 
0.338718 
0.340731 
0.341514 
0.343826 
0.342882 
0.34273 
0.341294 
0.342667 
0.331825 
0.328861 
0.327943 
0.331557 
0.331197 
0.330223 
0.334405 
0.332074 
0.328479 
0.329756 
0.33328 
0.332899 
0.336607 
0.334097 
0.331416 
0.335411 
0.333077 
0.332704 
0.328621 
0.331842 
0.336545 
0.333315 
0.33133 
0.332075 
0.334286 
0.333847 
0.334223 
0.334753 
0.335774 
0.33274 
0.33448 
0.332802 
0.336308 
0.331902 
0.33288 
0.333036 
0.332013 
0.333033 
0.333313 
0.331491 
0.333322 
0.333262 
0.334442 
0.332282 
0.33262 
0.333901 
0.333325 
0.330587 
0.334254 
0.331869 
0.332131 
0.332912 
0.330577 
0.331266 
0.331636 
0.333225 
0.333157 
0.33459 
0.332398 
0.328188 
0.330398 
0.331052 
0.331162 
0.330109 
0.331246 
0.331321 
0.331577 
0.332457 
0.333802 
0.331864 
0.331288 
0.332608 
0.330968 
0.334629 
0.333361 
0.331608 
0.332085 
0.331548 
0.331459 
0.330343 
0.333385 
0.331796 
0.330921 
0.331671 
0.336257 
0.332529 
0.332875 
0.331844 
0.330382 
0.330844 
0.332246 
0.329448 
0.332646 
0.331614 
0.336345 
0.334284 
0.331186 
0.332067 
0.332477 
0.331672 
0.321994 
0.323368 
0.322323 
0.323477 
0.324926 
0.32448 
0.322838 
0.321896 
0.321811 
0.322103 
0.323287 
0.320936 
0.324549 
0.323356 
0.324814 
0.322974 
0.323084 
0.324663 
0.325399 
0.322101 
0.319941 
0.321792 
0.325752 
0.324998 
0.324271 
0.325391 
0.325509 
0.321756 
0.324368 
0.322983 
0.324058 
0.320461 
0.325009 
0.321207 
0.32512 
0.32153 
0.322301 
0.32423 
0.319962 
0.321238 
0.316501 
0.320568 
0.319768 
0.320716 
0.323064 
0.324648 
0.322317 
0.32032 
0.322236 
0.323487 
0.319686 
0.323344 
0.32276 
0.318931 
0.322479 
0.323979 
0.322905 
0.320239 
0.321096 
0.322491 
0.320069 
0.323414 
0.320045 
0.321603 
0.323679 
0.322414 
0.322411 
0.32374 
0.320361 
0.323174 
0.320723 
0.324248 
0.324114 
0.321882 
0.321321 
0.325798 
0.322549 
0.321722 
0.323261 
0.324424 
0.322164 
0.321439 
0.322559 
0.323049 
0.32457 
0.324614 
0.320443 
0.322073 
0.323468 
0.321628 
0.319985 
0.321796 
0.322123 
0.320381 
0.322746 
0.32305 
0.324936 
0.320704 
0.32205 
0.32484 
0.312744 
0.309767 
0.308512 
0.308098 
0.312613 
0.311414 
0.308979 
0.310951 
0.314297 
0.313838 
0.312045 
0.311695 
0.310893 
0.311584 
0.310094 
0.309009 
0.309409 
0.311399 
0.312244 
0.312907 
0.313045 
0.314233 
0.309537 
0.313101 
0.309779 
0.310331 
0.311839 
0.310468 
0.313404 
0.310003 
0.312972 
0.313095 
0.311267 
0.310703 
0.31198 
0.310826 
0.309111 
0.309643 
0.309261 
0.310498 
0.311855 
0.309989 
0.312863 
0.311883 
0.3148 
0.311975 
0.311179 
0.310012 
0.310359 
0.309672 
0.312491 
0.309401 
0.311106 
0.312947 
0.313213 
0.313092 
0.312902 
0.313264 
0.311024 
0.308709 
0.310688 
0.310673 
0.311584 
0.312097 
0.311943 
0.311632 
0.314033 
0.312198 
0.31342 
0.31211 
0.308359 
0.309021 
0.310288 
0.310742 
0.312232 
0.313126 
0.314246 
0.316276 
0.314002 
0.314484 
0.311097 
0.311316 
0.309313 
0.311482 
0.314418 
0.31053 
0.3105 
0.312281 
0.313199 
0.311491 
0.310869 
0.310109 
0.312605 
0.31078 
0.313995 
0.313455 
0.310955 
0.314307 
0.311851 
0.31115 
0.300536 
0.300796 
0.297524 
0.299248 
0.300077 
0.298 
0.298689 
0.301772 
0.301909 
0.303065 
0.296654 
0.30154 
0.298969 
0.300134 
0.298372 
0.300159 
0.301891 
0.299999 
0.299428 
0.30098 
0.29879 
0.30238 
0.30167 
0.300934 
0.303156 
0.300001 
0.299102 
0.300465 
0.301769 
0.301015 
0.29973 
0.301337 
0.297924 
0.300616 
0.299371 
0.299606 
0.298382 
0.299477 
0.299435 
0.296443 
0.299646 
0.299169 
0.299165 
0.299604 
0.299499 
0.300572 
0.299017 
0.29866 
0.299175 
0.296477 
0.295523 
0.301715 
0.299824 
0.297654 
0.30061 
0.298545 
0.30092 
0.302364 
0.300879 
0.297371 
0.298194 
0.297935 
0.299309 
0.299978 
0.300291 
0.30126 
0.303597 
0.300463 
0.299075 
0.299976 
0.301797 
0.301404 
0.300032 
0.300281 
0.303746 
0.301298 
0.3019 
0.301739 
0.301354 
0.300009 
0.302294 
0.299478 
0.302965 
0.299814 
0.301995 
0.299981 
0.300543 
0.302435 
0.300663 
0.299544 
0.300677 
0.300353 
0.303381 
0.301031 
0.303174 
0.301287 
0.300171 
0.304392 
0.302988 
0.302246 
0.288324 
0.289675 
0.286691 
0.285093 
0.2872 
0.28832 
0.28781 
0.290159 
0.286554 
0.28869 
0.288093 
0.286908 
0.29086 
0.285932 
0.287087 
0.288442 
0.287002 
0.28742 
0.288299 
0.290106 
0.284754 
0.286156 
0.287801 
0.28799 
0.290992 
0.288535 
0.288697 
0.289394 
0.288094 
0.287315 
0.285396 
0.287949 
0.28675 
0.287802 
0.290247 
0.289438 
0.290882 
0.290666 
0.287914 
0.285158 
0.284515 
0.287459 
0.286033 
0.286942 
0.28742 
0.28562 
0.290592 
0.287733 
0.289646 
0.287614 
0.287969 
0.286297 
0.286543 
0.286844 
0.287002 
0.28659 
0.289456 
0.29101 
0.289442 
0.287274 
0.290356 
0.285979 
0.288146 
0.287902 
0.286574 
0.28855 
0.291441 
0.290319 
0.286473 
0.287039 
0.289794 
0.289326 
0.287619 
0.289379 
0.286755 
0.28795 
0.289372 
0.290504 
0.288659 
0.289082 
0.289403 
0.28806 
0.287994 
0.289357 
0.285448 
0.289854 
0.288976 
0.28865 
0.287308 
0.290469 
0.291527 
0.287297 
0.289807 
0.290076 
0.288503 
0.287204 
0.284944 
0.289128 
0.290187 
0.292168 
0.275094 
0.277105 
0.27409 
0.276664 
0.276719 
0.275184 
0.27127 
0.277292 
0.276298 
0.275568 
0.275827 
0.275196 
0.277993 
0.274037 
0.274794 
0.279424 
0.27347 
0.278373 
0.278168 
0.273831 
0.276268 
0.276204 
0.27571 
0.275781 
0.276298 
0.279022 
0.279658 
0.276269 
0.274032 
0.273868 
0.271202 
0.272881 
0.275427 
0.274432 
0.276724 
0.277514 
0.276964 
0.27736 
0.276233 
0.276409 
0.276093 
0.276734 
0.274422 
0.274894 
0.275387 
0.27675 
0.277177 
0.277569 
0.27852 
0.273471 
0.276491 
0.278855 
0.276024 
0.277318 
0.276388 
0.276501 
0.276043 
0.280276 
0.280307 
0.277241 
0.275138 
0.276449 
0.275221 
0.275611 
0.277172 
0.280416 
0.277252 
0.276398 
0.276845 
0.274487 
0.274561 
0.277927 
0.276026 
0.275974 
0.27598 
0.279188 
0.275304 
0.279148 
0.278063 
0.277674 
0.277057 
0.278063 
0.27775 
0.278018 
0.277304 
0.276386 
0.276175 
0.275641 
0.275651 
0.278291 
0.278908 
0.276624 
0.27604 
0.276318 
0.277305 
0.275632 
0.278601 
0.277375 
0.274575 
0.278982 
0.264011 
0.264066 
0.263726 
0.264447 
0.265419 
0.263386 
0.264818 
0.264267 
0.26304 
0.265536 
0.261814 
0.261422 
0.26508 
0.263534 
0.263705 
0.263431 
0.264588 
0.264102 
0.264299 
0.264402 
0.264697 
0.262704 
0.262674 
0.261734 
0.262901 
0.266143 
0.266296 
0.26451 
0.264317 
0.261752 
0.263449 
0.263946 
0.264916 
0.263648 
0.263463 
0.265182 
0.266303 
0.265615 
0.263529 
0.262842 
0.262445 
0.26531 
0.264075 
0.263926 
0.264786 
0.266814 
0.265128 
0.264248 
0.263309 
0.26439 
0.263395 
0.265557 
0.26411 
0.264723 
0.264125 
0.263804 
0.261553 
0.261815 
0.263716 
0.264987 
0.26519 
0.262891 
0.266563 
0.264514 
0.264584 
0.26442 
0.266084 
0.266654 
0.265061 
0.263481 
0.265783 
0.267104 
0.261832 
0.262342 
0.263657 
0.264522 
0.262876 
0.2653 
0.266037 
0.264573 
0.265639 
0.264957 
0.262788 
0.264493 
0.26159 
0.265312 
0.26382 
0.263716 
0.265023 
0.262502 
0.263003 
0.262883 
0.261436 
0.264417 
0.265964 
0.26277 
0.264535 
0.264736 
0.265126 
0.263784 
0.248053 
0.251856 
0.251696 
0.253306 
0.251004 
0.252567 
0.252508 
0.250863 
0.249443 
0.250589 
0.251268 
0.251941 
0.254101 
0.253433 
0.252128 
0.251735 
0.252681 
0.252066 
0.250498 
0.250891 
0.249758 
0.248634 
0.249402 
0.250685 
0.248642 
0.248509 
0.251949 
0.249157 
0.250466 
0.248538 
0.249974 
0.249147 
0.24787 
0.251802 
0.25194 
0.25237 
0.252284 
0.252024 
0.251612 
0.251944 
0.250746 
0.252831 
0.249643 
0.252598 
0.250481 
0.250684 
0.253166 
0.254522 
0.253313 
0.249757 
0.25125 
0.254013 
0.253182 
0.253725 
0.252915 
0.251804 
0.253057 
0.252981 
0.251536 
0.251258 
0.253851 
0.251934 
0.253252 
0.253844 
0.253305 
0.252292 
0.253415 
0.250116 
0.249534 
0.251539 
0.251663 
0.254588 
0.254318 
0.251591 
0.251417 
0.255024 
0.253535 
0.251023 
0.252584 
0.254633 
0.254744 
0.254937 
0.253541 
0.252025 
0.254214 
0.248978 
0.250213 
0.248802 
0.250539 
0.254294 
0.251626 
0.25246 
0.252047 
0.25266 
0.253889 
0.249871 
0.249509 
0.251785 
0.251656 
0.250638 
0.238524 
0.237502 
0.240326 
0.235337 
0.237538 
0.237979 
0.239975 
0.237671 
0.239816 
0.238282 
0.238249 
0.23731 
0.239851 
0.237807 
0.242028 
0.238528 
0.238492 
0.238284 
0.236572 
0.239447 
0.237585 
0.237897 
0.240468 
0.240097 
0.240888 
0.239834 
0.236852 
0.236365 
0.241049 
0.240226 
0.239175 
0.238188 
0.237783 
0.237933 
0.239979 
0.239318 
0.240883 
0.238559 
0.238843 
0.237564 
0.23993 
0.237078 
0.240167 
0.242268 
0.241488 
0.239708 
0.241189 
0.239533 
0.24158 
0.237173 
0.236937 
0.239205 
0.240011 
0.24354 
0.241813 
0.239241 
0.239654 
0.237793 
0.239219 
0.239799 
0.240035 
0.240529 
0.23957 
0.236723 
0.239611 
0.240868 
0.239741 
0.237703 
0.2388 
0.240473 
0.239367 
0.238402 
0.237931 
0.234861 
0.240153 
0.240101 
0.239894 
0.240981 
0.243301 
0.240807 
0.238734 
0.240099 
0.238545 
0.239319 
0.240349 
0.240156 
0.241326 
0.238694 
0.238759 
0.241071 
0.23871 
0.238651 
0.240025 
0.2413 
0.239416 
0.238932 
0.242465 
0.241075 
0.238799 
0.240503 
0.227786 
0.226186 
0.224168 
0.226871 
0.229262 
0.226924 
0.226286 
0.226142 
0.225986 
0.227648 
0.222944 
0.226831 
0.226222 
0.226393 
0.227213 
0.226002 
0.226947 
0.227551 
0.23069 
0.229682 
0.226426 
0.224974 
0.225085 
0.225755 
0.229017 
0.227773 
0.230693 
0.229495 
0.227958 
0.228783 
0.229478 
0.22684 
0.226023 
0.227321 
0.227758 
0.225973 
0.230498 
0.228487 
0.225902 
0.226393 
0.226493 
0.225856 
0.226073 
0.22685 
0.228176 
0.229295 
0.226803 
0.22702 
0.227005 
0.227824 
0.226376 
0.225795 
0.228023 
0.228728 
0.231305 
0.228722 
0.228294 
0.226235 
0.223704 
0.225023 
0.227471 
0.225785 
0.228596 
0.228206 
0.228431 
0.226194 
0.228597 
0.230694 
0.226998 
0.226942 
0.224963 
0.227094 
0.224763 
0.22745 
0.227709 
0.228295 
0.228392 
0.229479 
0.226343 
0.226754 
0.224821 
0.22618 
0.225383 
0.225657 
0.230109 
0.229286 
0.22726 
0.226469 
0.227199 
0.225521 
0.227081 
0.228449 
0.228059 
0.228441 
0.22957 
0.22971 
0.226501 
0.228569 
0.227762 
0.228246 
0.218313 
0.215445 
0.216069 
0.216952 
0.217784 
0.215905 
0.216999 
0.215961 
0.215007 
0.214185 
0.215535 
0.217523 
0.213322 
0.218384 
0.214308 
0.215859 
0.217095 
0.216758 
0.214285 
0.215199 
0.215731 
0.218962 
0.217297 
0.213281 
0.214566 
0.215108 
0.215425 
0.215768 
0.214893 
0.216538 
0.220434 
0.216646 
0.214425 
0.213674 
0.216706 
0.21517 
0.218077 
0.215644 
0.212781 
0.213753 
0.215417 
0.214505 
0.215036 
0.215144 
0.217159 
0.212736 
0.218145 
0.21496 
0.216899 
0.216309 
0.215224 
0.217227 
0.215479 
0.216789 
0.219633 
0.218774 
0.219739 
0.214898 
0.217213 
0.216847 
0.216178 
0.214909 
0.217278 
0.215418 
0.216098 
0.2165 
0.217509 
0.215967 
0.215426 
0.21637 
0.214331 
0.21535 
0.215888 
0.213288 
0.214935 
0.217263 
0.216397 
0.217331 
0.216505 
0.215867 
0.214383 
0.215413 
0.216533 
0.215332 
0.217292 
0.218484 
0.214946 
0.216997 
0.216085 
0.215522 
0.214541 
0.215081 
0.213285 
0.216017 
0.216107 
0.216632 
0.21559 
0.216326 
0.213673 
0.213668 
0.206959 
0.204236 
0.20119 
0.201595 
0.204607 
0.20353 
0.203716 
0.203034 
0.203169 
0.204029 
0.206287 
0.205601 
0.204794 
0.204435 
0.203277 
0.20364 
0.204124 
0.203098 
0.205584 
0.203698 
0.206088 
0.206194 
0.205297 
0.201607 
0.205371 
0.203557 
0.202254 
0.20381 
0.205513 
0.204098 
0.205043 
0.205259 
0.203878 
0.203137 
0.204673 
0.205621 
0.203769 
0.204343 
0.202714 
0.201545 
0.203068 
0.203673 
0.204919 
0.205788 
0.203938 
0.206496 
0.205224 
0.204695 
0.202631 
0.202781 
0.202999 
0.20357 
0.205442 
0.204236 
0.20455 
0.204456 
0.202877 
0.204928 
0.204988 
0.203284 
0.203074 
0.201669 
0.203378 
0.202687 
0.2041 
0.203653 
0.205867 
0.204625 
0.203362 
0.204067 
0.204045 
0.203488 
0.20253 
0.205096 
0.202469 
0.20393 
0.205936 
0.203112 
0.203453 
0.203561 
0.202384 
0.20372 
0.204242 
0.2039 
0.203723 
0.204306 
0.20349 
0.203199 
0.203136 
0.206737 
0.203699 
0.204448 
0.20436 
0.20227 
0.200781 
0.20453 
0.203077 
0.204685 
0.203759 
0.203212 
0.192298 
0.193065 
0.193092 
0.192571 
0.193941 
0.193298 
0.191896 
0.194291 
0.194231 
0.193402 
0.194303 
0.194103 
0.191742 
0.191361 
0.193057 
0.192869 
0.191467 
0.191807 
0.193161 
0.193054 
0.195148 
0.193415 
0.192624 
0.191492 
0.192423 
0.192063 
0.190279 
0.193287 
0.192745 
0.191159 
0.19167 
0.191904 
0.193526 
0.193106 
0.193821 
0.192098 
0.192298 
0.192103 
0.192262 
0.192605 
0.19188 
0.193917 
0.193027 
0.190201 
0.195457 
0.193822 
0.194769 
0.18986 
0.19073 
0.190608 
0.192509 
0.193306 
0.192159 
0.193556 
0.193626 
0.193007 
0.193206 
0.191332 
0.19239 
0.191907 
0.191987 
0.191301 
0.191984 
0.19228 
0.192156 
0.191648 
0.192006 
0.194135 
0.191763 
0.192383 
0.192905 
0.191127 
0.191508 
0.194527 
0.191076 
0.193955 
0.192143 
0.193295 
0.191188 
0.192229 
0.192311 
0.192744 
0.189179 
0.192265 
0.191803 
0.192222 
0.192371 
0.191851 
0.193543 
0.192562 
0.19449 
0.191714 
0.191174 
0.192507 
0.192992 
0.190877 
0.193718 
0.191883 
0.192558 
0.191803 
0.18206 
0.182172 
0.181293 
0.183157 
0.182644 
0.183395 
0.181257 
0.182217 
0.180866 
0.18062 
0.182787 
0.182401 
0.181645 
0.180798 
0.181331 
0.181731 
0.180022 
0.183101 
0.182751 
0.180501 
0.184516 
0.183661 
0.183498 
0.181648 
0.180228 
0.180898 
0.181449 
0.183037 
0.185272 
0.181427 
0.181259 
0.182437 
0.181026 
0.181685 
0.180314 
0.182804 
0.182835 
0.180439 
0.180384 
0.184443 
0.180091 
0.180206 
0.182094 
0.182066 
0.181326 
0.179864 
0.182923 
0.182788 
0.184497 
0.182568 
0.182254 
0.182365 
0.181477 
0.184235 
0.181689 
0.180512 
0.18412 
0.182473 
0.184242 
0.181926 
0.18133 
0.182645 
0.184093 
0.183499 
0.181381 
0.182145 
0.180411 
0.182521 
0.18202 
0.181694 
0.181307 
0.182841 
0.182874 
0.1836 
0.183344 
0.182994 
0.179908 
0.179293 
0.180509 
0.181973 
0.182715 
0.182403 
0.180141 
0.180992 
0.181244 
0.180393 
0.180404 
0.182079 
0.181394 
0.179769 
0.180748 
0.181187 
0.180589 
0.182339 
0.181656 
0.180536 
0.181866 
0.181515 
0.182289 
0.181753 
0.169295 
0.170863 
0.172468 
0.171697 
0.172639 
0.174252 
0.172476 
0.168485 
0.170981 
0.169688 
0.169868 
0.171244 
0.17155 
0.172144 
0.17199 
0.172641 
0.172044 
0.170298 
0.169763 
0.168452 
0.170067 
0.17141 
0.1718 
0.171679 
0.171443 
0.171324 
0.172914 
0.16878 
0.170624 
0.170009 
0.171086 
0.170831 
0.170678 
0.170595 
0.170933 
0.170117 
0.172403 
0.170743 
0.172065 
0.171094 
0.16956 
0.169733 
0.172091 
0.171396 
0.170865 
0.170708 
0.170256 
0.170131 
0.172137 
0.1721 
0.170352 
0.169363 
0.171057 
0.171085 
0.171358 
0.170202 
0.171087 
0.168423 
0.173944 
0.171799 
0.171455 
0.170098 
0.170245 
0.171237 
0.170576 
0.169419 
0.169451 
0.171157 
0.17183 
0.169853 
0.172244 
0.170825 
0.170719 
0.173225 
0.17034 
0.173059 
0.170914 
0.17013 
0.172011 
0.171297 
0.171469 
0.168924 
0.171033 
0.173245 
0.170058 
0.171603 
0.173704 
0.170843 
0.172157 
0.173485 
0.170549 
0.171092 
0.172978 
0.172211 
0.169225 
0.17042 
0.171728 
0.172341 
0.172628 
0.171973 
0.162942 
0.160839 
0.161464 
0.160583 
0.160591 
0.161347 
0.16131 
0.158516 
0.160563 
0.160988 
0.161784 
0.161169 
0.162494 
0.161821 
0.161065 
0.162489 
0.163843 
0.162593 
0.160947 
0.162636 
0.160408 
0.161525 
0.161381 
0.161823 
0.16198 
0.161878 
0.162337 
0.160257 
0.160059 
0.158397 
0.161788 
0.16193 
0.160795 
0.162094 
0.161487 
0.162487 
0.16115 
0.161361 
0.160098 
0.159385 
0.160878 
0.162283 
0.161759 
0.161383 
0.159197 
0.161679 
0.159428 
0.159572 
0.158732 
0.158443 
0.158857 
0.161872 
0.16107 
0.161754 
0.160905 
0.160176 
0.159176 
0.157764 
0.157154 
0.15948 
0.163233 
0.161721 
0.163365 
0.162314 
0.16091 
0.160601 
0.159919 
0.159713 
0.160374 
0.163031 
0.160739 
0.15948 
0.161608 
0.162241 
0.161015 
0.160771 
0.159377 
0.161178 
0.161371 
0.159308 
0.160316 
0.161293 
0.161075 
0.161918 
0.162334 
0.160173 
0.158613 
0.15959 
0.161043 
0.160687 
0.160648 
0.160691 
0.161293 
0.16073 
0.162599 
0.161191 
0.159858 
0.159644 
0.160482 
0.161659 
0.153159 
0.153496 
0.152142 
0.150908 
0.149641 
0.151563 
0.152767 
0.151057 
0.149842 
0.149566 
0.15206 
0.153183 
0.151375 
0.152203 