# vtk DataFile Version 3.0
MOAB 4.6.0
ASCII
DATASET UNSTRUCTURED_GRID
POINTS 133 double
2.5 -0.5 -0.5
2.5 -0.5 0.5
2.5 -0.5 0.1666666667
2.5 -0.5 -0.1666666667
2.5 0.5 -0.5
2.5 -0.1666666667 -0.5
2.5 0.1666666667 -0.5
2.5 0.5 0.5
2.5 0.5 -0.1666666667
2.5 0.5 0.1666666667
2.5 0.1666666667 0.5
2.5 -0.1666666667 0.5
2.5 0.1601017923 -0.02126765447
2.5 -0.008333797701 0.2660948883
2.5 -0.20496936 0.05137122643
2.5 -0.1089735135 -0.2273126189
2.5 0.2636869323 0.2822987801
2.5 -0.2759939649 0.2968265563
5 -0.5 -0.5
2.916666667 -0.5 -0.5
3.333333333 -0.5 -0.5
3.75 -0.5 -0.5
4.166666667 -0.5 -0.5
4.583333333 -0.5 -0.5
5 -0.5 0.5
5 -0.5 0.1666666667
5 -0.5 -0.1666666667
4.583333333 -0.5 0.5
4.166666667 -0.5 0.5
3.75 -0.5 0.5
3.333333333 -0.5 0.5
2.916666667 -0.5 0.5
3.160452303 -0.5 -0.2104398808
3.487244794 -0.5 -0.1805234126
3.876082357 -0.5 -0.1642906562
4.262295075 -0.5 -0.1310405967
4.625405153 -0.5 0.01187407585
4.325221566 -0.5 0.2109145329
3.995206587 -0.5 0.180014614
3.609189075 -0.5 0.1612079846
3.228703331 -0.5 0.1265099118
2.870414828 -0.5 -0.01398832816
5 0.5 -0.5
4.583333333 0.5 -0.5
4.166666667 0.5 -0.5
3.75 0.5 -0.5
3.333333333 0.5 -0.5
2.916666667 0.5 -0.5
5 -0.1666666667 -0.5
5 0.1666666667 -0.5
4.341446524 0.2098971156 -0.5
4.012160845 0.1806367922 -0.5
3.623529374 0.1643226638 -0.5
3.237088479 0.1298390601 -0.5
4.631604786 0.01317692634 -0.5
3.173696663 -0.2107137518 -0.5
3.504404349 -0.180174199 -0.5
3.889712794 -0.1610083834 -0.5
4.270820825 -0.1262162582 -0.5
2.874019746 -0.01347911528 -0.5
5 0.5 0.5
5 0.1666666667 0.5
5 -0.1666666667 0.5
5 0.5 -0.1666666667
5 0.5 0.1666666667
5 0.02126765447 0.1601017923
5 -0.2660948883 -0.008333797701
5 -0.05137122643 -0.20496936
5 0.2273126189 -0.1089735135
5 -0.2822987801 0.2636869323
5 -0.2968265563 -0.2759939649
2.916666667 0.5 0.5
3.333333333 0.5 0.5
3.75 0.5 0.5
4.166666667 0.5 0.5
4.583333333 0.5 0.5
4.341446524 -0.2098971156 0.5
4.012160845 -0.1806367922 0.5
3.623529374 -0.1643226638 0.5
3.237088479 -0.1298390601 0.5
4.631604786 -0.01317692634 0.5
3.173696663 0.2107137518 0.5
3.504404349 0.180174199 0.5
3.889712794 0.1610083834 0.5
4.270820825 0.1262162582 0.5
2.874019746 0.01347911528 0.5
3.160452303 0.5 0.2104398808
3.487244794 0.5 0.1805234126
3.876082357 0.5 0.1642906562
4.262295075 0.5 0.1310405967
4.625405153 0.5 -0.01187407585
4.325221566 0.5 -0.2109145329
3.995206587 0.5 -0.180014614
3.609189075 0.5 -0.1612079846
3.228703331 0.5 -0.1265099118
2.870414828 0.5 0.01398832816
4.621167183 0.1467276365 0.02320851572
4.587869644 -0.1567480564 0.2425334156
4.739274979 0.211898312 0.2149455696
4.613420486 -0.1452762336 0.01912979782
4.487459183 0.2077860832 0.2191662192
4.798600197 -0.2607178986 -0.2513897717
2.986800671 -0.287807256 -0.1623533964
2.726988554 -0.3093886077 -0.2525732815
3.337021112 -0.1372564733 -0.2551191747
2.90698123 -0.02941352315 -0.1697928011
3.284005404 -0.1658762544 0.101363875
3.02803421 -0.2257682532 0.2356002629
2.826515913 0.05140550435 0.126691252
4.4858675 0.1870624721 -0.2482018322
4.298799992 0.2775917947 -0.02752953023
4.444809437 -0.2373282611 -0.2480938882
4.216859818 -0.09785936028 -0.1999637187
4.762773514 0.2927835584 -0.2715108693
3.274288416 0.008211490698 0.2768995464
4.217506886 0.04043630511 0.1927536577
4.153773308 0.2285368741 -0.2665785253
4.144780636 -0.2618141472 0.01969689317
3.926980972 -0.06076477468 0.2146259844
3.87608242 -0.1666666716 -0.05476365983
3.87608242 0.1666666716 0.05476349965
2.741821527 -0.2532663345 0.2478310466
2.772876501 0.2904781997 -0.2425258309
3.029907465 0.2114405781 -0.221938625
3.24358201 0.1711490601 -0.0628580302
4.806509018 -0.3666316569 0.295664221
3.627902746 -0.06697357446 0.1921230257
3.562954187 0.1991491169 0.07620308548
3.018739462 0.2663551867 0.1878198683
2.684382915 0.3530833423 0.338766247
3.623529434 0.05477424711 -0.1666666716
3.572375298 -0.2144924253 -0.06068827957
3.926980972 0.06076446176 -0.2146259844
CELLS 438 2190
4 65 96 97 98
4 65 97 96 99
4 75 90 98 100
4 61 75 60 98
4 64 60 75 98
4 80 98 97 100
4 75 98 80 100
4 65 97 80 98
4 48 70 67 101
4 66 99 67 101
4 18 70 48 101
4 26 36 66 101
4 18 26 70 101
4 19 102 55 103
4 55 102 104 105
4 81 86 72 87
4 102 104 105 106
4 102 107 106 108
4 40 106 102 107
4 19 41 102 103
4 102 106 105 108
4 40 102 41 107
4 40 32 102 106
4 90 109 96 110
4 54 99 109 111
4 99 109 111 112
4 54 43 109 113
4 78 79 82 114
4 109 112 115 116
4 67 99 96 109
4 50 58 111 112
4 50 111 109 112
4 38 77 117 118
4 83 74 84 115
4 22 58 57 112
4 22 111 58 112
4 34 22 57 117
4 38 117 34 119
4 117 119 118 120
4 82 87 73 88
4 13 14 108 121
4 14 2 41 121
4 1 31 2 121
4 13 85 11 121
4 1 11 31 121
4 12 108 105 122
4 59 122 105 123
4 51 57 58 112
4 59 47 122 123
4 8 4 47 122
4 6 47 4 122
4 47 95 122 123
4 47 94 95 123
4 90 96 100 110
4 89 90 100 110
4 89 88 110 115
4 88 92 110 120
4 96 100 110 115
4 115 110 116 120
4 104 123 105 124
4 96 97 100 115
4 97 99 117 115
4 76 97 117 115
4 106 108 114 124
4 36 99 97 125
4 96 99 97 115
4 84 100 76 115
4 38 39 78 126
4 69 97 99 125
4 82 114 87 127
4 27 97 80 125
4 95 108 122 123
4 87 114 124 127
4 86 124 114 128
4 71 95 128 129
4 95 108 128 129
4 52 93 124 130
4 105 122 108 123
4 95 123 86 128
4 86 123 94 124
4 78 106 114 126
4 106 108 107 114
4 78 106 79 114
4 82 81 87 114
4 108 114 124 128
4 10 85 108 129
4 81 86 87 114
4 104 130 124 131
4 32 104 102 106
4 20 56 55 104
4 33 104 106 131
4 20 55 32 104
4 36 37 99 111
4 36 99 101 111
4 22 111 112 117
4 23 58 22 111
4 71 95 86 128
4 104 105 106 124
4 32 55 102 104
4 33 106 39 131
4 33 104 32 106
4 14 102 103 105
4 55 59 103 105
4 3 14 41 103
4 55 103 102 105
4 0 19 5 103
4 0 3 19 103
4 5 19 59 103
4 81 114 85 128
4 10 85 13 108
4 85 128 108 129
4 10 108 16 129
4 16 108 9 129
4 16 9 7 129
4 10 7 71 129
4 55 56 53 104
4 76 80 97 100
4 76 100 97 115
4 77 117 118 115
4 71 128 85 129
4 83 77 118 115
4 83 82 120 126
4 93 120 127 130
4 92 120 93 130
4 120 115 132 116
4 119 127 131 126
4 118 120 119 126
4 21 20 33 56
4 37 97 99 117
4 112 117 115 132
4 69 80 65 97
4 27 37 76 97
4 69 80 97 125
4 96 97 98 100
4 43 42 63 113
4 109 90 43 91
4 63 68 90 113
4 113 109 90 43
4 49 67 68 113
4 54 109 67 113
4 67 109 96 113
4 117 118 115 120
4 116 50 91 109
4 90 96 98 100
4 99 112 111 117
4 90 91 109 110
4 109 115 99 96
4 68 90 96 98
4 37 99 111 117
4 84 74 75 100
4 75 74 89 100
4 85 108 107 121
4 79 106 107 114
4 78 114 82 126
4 71 86 81 128
4 12 95 108 122
4 9 108 95 129
4 53 123 104 124
4 52 124 104 130
4 6 15 59 105
4 104 124 106 131
4 19 55 59 103
4 15 103 59 105
4 74 89 100 115
4 75 89 90 100
4 65 68 96 98
4 64 90 68 98
4 23 101 54 111
4 61 65 80 98
4 30 79 106 107
4 106 124 127 131
4 36 99 66 101
4 106 127 126 131
4 34 35 22 117
4 85 114 108 128
4 79 107 85 114
4 31 85 107 121
4 30 106 40 107
4 31 79 30 107
4 86 123 124 128
4 31 30 40 107
4 86 87 114 124
4 87 94 93 124
4 106 124 114 127
4 52 104 56 130
4 53 104 52 124
4 54 67 49 113
4 95 94 86 123
4 85 107 108 114
4 38 78 118 126
4 83 118 78 126
4 37 76 97 117
4 117 120 115 132
4 116 109 110 115
4 39 119 34 131
4 34 119 56 131
4 106 114 126 127
4 33 34 56 131
4 83 82 88 120
4 77 76 117 115
4 38 118 119 126
4 57 117 112 132
4 39 126 119 131
4 117 119 120 132
4 83 120 118 126
4 38 118 117 119
4 38 119 39 126
4 115 109 110 96
4 82 126 114 127
4 82 120 126 127
4 41 107 102 108
4 127 120 119 130
4 51 52 57 132
4 12 14 105 108
4 52 132 92 130
4 92 132 120 130
4 82 88 120 127
4 46 93 94 124
4 55 59 105 123
4 87 124 93 127
4 126 120 119 127
4 57 119 132 130
4 124 130 127 131
4 52 57 132 130
4 89 110 100 115
4 116 92 51 132
4 116 115 132 112
4 84 75 80 100
4 22 35 111 117
4 65 68 67 96
4 67 96 68 113
4 66 65 67 99
4 65 96 67 99
4 21 34 22 57
4 66 67 70 101
4 116 112 50 109
4 116 91 92 110
4 12 15 6 105
4 55 105 104 123
4 35 37 36 111
4 124 46 52 53
4 8 47 95 122
4 6 105 59 122
4 53 46 123 124
4 46 94 47 123
4 55 104 53 123
4 39 30 78 106
4 1 2 17 121
4 52 92 93 130
4 130 127 131 119
4 38 78 77 118
4 35 37 111 117
4 56 119 130 131
4 89 115 74 88
4 50 54 109 111
4 116 44 91 50
4 89 92 91 110
4 8 6 4 122
4 45 52 92 93
4 12 14 15 105
4 33 40 39 106
4 89 91 90 110
4 95 108 123 128
4 92 44 91 116
4 42 49 63 113
4 83 115 118 120
4 25 27 24 125
4 83 73 74 88
4 88 93 120 127
4 24 62 69 125
4 83 84 77 115
4 10 11 13 85
4 10 71 85 129
4 82 72 73 87
4 30 79 78 106
4 119 120 132 130
4 89 88 92 110
4 27 76 80 97
4 10 13 16 108
4 1 17 11 121
4 37 77 76 117
4 69 97 65 99
4 112 109 115 99
4 84 74 100 115
4 83 82 73 88
4 12 95 9 108
4 51 92 52 132
4 39 106 78 126
4 54 101 99 111
4 25 69 66 125
4 71 72 81 86
4 8 95 12 122
4 24 27 62 125
4 38 29 77 78
4 64 75 90 98
4 79 85 81 114
4 31 85 79 107
4 105 123 108 124
4 93 127 124 130
4 71 81 85 128
4 14 41 108 121
4 11 85 31 121
4 56 130 104 131
4 46 94 123 124
4 39 106 126 131
4 81 86 114 128
4 41 107 108 121
4 61 80 75 98
4 37 77 28 76
4 116 109 91 110
4 27 80 62 125
4 68 96 90 113
4 99 112 117 115
4 56 119 57 130
4 83 78 82 126
4 83 77 78 118
4 43 63 90 113
4 45 46 52 93
4 61 60 64 98
4 36 66 99 125
4 69 62 65 80
4 7 9 71 129
4 25 24 69 125
4 69 65 66 99
4 36 25 66 125
4 54 99 67 109
4 36 97 27 125
4 26 66 70 101
4 48 67 54 101
4 49 68 63 113
4 64 68 65 98
4 14 41 102 108
4 115 74 88 83
4 82 87 88 127
4 38 77 37 117
4 61 65 62 80
4 116 51 50 112
4 54 67 99 101
4 23 36 101 111
4 18 23 26 101
4 88 110 115 120
4 64 63 68 90
4 50 54 43 109
4 23 48 54 101
4 44 51 116 92
4 50 43 91 109
4 33 56 20 104
4 19 32 55 102
4 34 57 56 119
4 33 56 104 131
4 52 56 57 130
4 83 88 115 120
4 51 57 112 132
4 69 62 80 125
4 50 58 54 111
4 15 14 103 105
4 14 102 105 108
4 55 53 59 123
4 14 102 41 103
4 59 53 47 123
4 51 45 52 92
4 77 84 76 115
4 8 9 12 95
4 12 9 16 108
4 6 59 47 122
4 43 49 42 113
4 54 49 43 113
4 48 49 54 67
4 9 95 71 129
4 22 112 57 117
4 87 93 88 127
4 5 59 15 103
4 10 16 7 129
4 34 117 57 119
4 21 56 34 57
4 57 119 117 132
4 82 81 72 87
4 44 50 43 91
4 18 48 23 101
4 23 54 58 111
4 44 45 51 92
4 53 46 47 123
4 90 96 109 113
4 50 51 116 44
4 38 29 28 77
4 27 37 28 76
4 36 37 97 99
4 29 39 30 78
4 38 37 35 117
4 23 22 35 111
4 38 39 29 78
4 13 17 14 121
4 33 39 34 131
4 84 80 76 100
4 13 108 85 121
4 82 79 81 114
4 2 31 41 121
4 105 108 106 124
4 33 32 40 106
4 38 34 39 119
4 61 64 65 98
4 38 28 37 77
4 38 35 34 117
4 108 124 123 128
4 36 27 25 125
4 26 36 25 66
4 53 56 52 104
4 26 23 36 101
4 116 132 51 112
4 93 124 46 52
4 36 37 27 97
4 31 40 41 107
4 12 16 13 108
4 3 41 19 103
4 86 94 87 124
4 19 32 20 55
4 69 99 66 125
4 33 20 32 104
4 88 93 92 120
4 31 107 41 121
4 19 41 32 102
4 12 13 14 108
4 21 33 34 56
4 39 40 30 106
4 23 35 36 111
4 50 51 58 112
4 3 15 14 103
4 6 15 5 59
4 13 11 17 121
4 5 15 3 103
4 3 14 2 41
4 17 2 14 121
4 8 12 6 122
4 0 5 3 103
4 40 32 41 102
4 12 105 6 122
4 116 92 132 120
4 116 92 120 110
CELL_TYPES 438
10
10
10
10
10
10
10
10
10
10
10
10
10
10
10
10
10
10
10
10
10
10
10
10
10
10
10
10
10
10
10
10
10
10
10
10
10
10
10
10
10
10
10
10
10
10
10
10
10
10
10
10
10
10
10
10
10
10
10
10
10
10
10
10
10
10
10
10
10
10
10
10
10
10
10
10
10
10
10
10
10
10
10
10
10
10
10
10
10
10
10
10
10
10
10
10
10
10
10
10
10
10
10
10
10
10
10
10
10
10
10
10
10
10
10
10
10
10
10
10
10
10
10
10
10
10
10
10
10
10
10
10
10
10
10
10
10
10
10
10
10
10
10
10
10
10
10
10
10
10
10
10
10
10
10
10
10
10
10
10
10
10
10
10
10
10
10
10
10
10
10
10
10
10
10
10
10
10
10
10
10
10
10
10
10
10
10
10
10
10
10
10
10
10
10
10
10
10
10
10
10
10
10
10
10
10
10
10
10
10
10
10
10
10
10
10
10
10
10
10
10
10
10
10
10
10
10
10
10
10
10
10
10
10
10
10
10
10
10
10
10
10
10
10
10
10
10
10
10
10
10
10
10
10
10
10
10
10
10
10
10
10
10
10
10
10
10
10
10
10
10
10
10
10
10
10
10
10
10
10
10
10
10
10
10
10
10
10
10
10
10
10
10
10
10
10
10
10
10
10
10
10
10
10
10
10
10
10
10
10
10
10
10
10
10
10
10
10
10
10
10
10
10
10
10
10
10
10
10
10
10
10
10
10
10
10
10
10
10
10
10
10
10
10
10
10
10
10
10
10
10
10
10
10
10
10
10
10
10
10
10
10
10
10
10
10
10
10
10
10
10
10
10
10
10
10
10
10
10
10
10
10
10
10
10
10
10
10
10
10
10
10
10
10
10
10
10
10
10
10
10
10
10
10
10
10
10
10
10
10
10
10
10
10
10
10
10
10
10
10
10
10
10
10
10
10
10
10
10
10
10
10
10
10
10
10
10
10
CELL_DATA 438
SCALARS TALLY_TAG double 1
LOOKUP_TABLE default
645.7223537 
670.8506842 
646.466984 
611.5470852 
614.1502302 
636.3819307 
648.510731 
625.0416346 
614.9637936 
633.9916697 
621.5941965 
654.5283837 
633.235294 
807.3426702 
807.4353548 
777.9338098 
780.1733122 
790.3465135 
778.5141589 
804.1931261 
818.3078589 
784.0953661 
767.033531 
643.5028027 
636.9039111 
659.0099036 
666.8389662 
771.93176 
681.7377811 
648.9779175 
673.7789702 
670.5693475 
689.9910835 
699.9800766 
670.5111496 
659.7787393 
688.4725712 
674.2430945 
666.8983281 
719.4683207 
835.6046892 
863.113244 
867.7490147 
834.0337852 
854.4643928 
836.9100233 
812.6600811 
665.7233204 
792.5059253 
863.9383063 
821.4045146 
821.7728387 
803.0394363 
643.054459 
663.1399022 
700.5069469 
702.994761 
644.6824574 
683.0352616 
786.9682596 
643.9457848 
652.9370271 
657.8183594 
787.0745341 
642.1902444 
668.1235103 
653.1885859 
719.2949997 
636.7193895 
763.0511775 
647.4761118 
828.1989995 
759.6534104 
810.3693227 
806.2476311 
822.3919071 
739.048902 
806.8828962 
801.7844362 
805.6195372 
753.0243877 
798.5409131 
782.3736432 
750.5550394 
787.7285032 
822.6805413 
783.5221303 
772.495489 
768.4929217 
778.0129502 
744.3383988 
785.3372722 
663.9004569 
647.0311425 
658.9833482 
658.3536049 
810.419977 
777.1184972 
782.0413843 
745.8551181 
759.2034758 
824.3574595 
812.8832578 
832.7112686 
803.913013 
812.4752553 
859.6697525 
804.8920514 
820.5508674 
823.2834755 
804.1076353 
833.6435754 
841.3356944 
879.0214927 
820.4610697 
784.1054314 
635.196796 
662.9990102 
668.3471749 
799.9003105 
676.9316641 
721.2570847 
742.9791982 
704.1881811 
700.6882319 
744.3273026 
721.213768 
725.8261808 
657.3568772 
688.2314605 
641.726693 
655.1389731 
618.4826946 
611.6584604 
649.9675383 
616.4788025 
631.2744598 
653.6614261 
634.3484567 
643.3455672 
646.5552761 
680.3278554 
664.8220736 
640.3299711 
694.0044029 
678.159876 
667.5925731 
646.4234753 
674.6895287 
642.862324 
666.3827495 
794.5668118 
791.8074689 
764.3381552 
792.525603 
845.1839982 
826.8084115 
784.3594442 
759.3125303 
821.6107545 
719.5473249 
812.4395175 
823.7465345 
658.8800173 
662.4989672 
612.7636225 
622.1536222 
632.6831632 
624.8175457 
764.2719861 
755.4111335 
629.4263676 
734.9366432 
664.4707851 
785.3175368 
795.4761702 
802.5804576 
791.8684322 
796.5815611 
800.2798806 
787.2458395 
773.3167727 
758.0920556 
776.5620799 
742.6891778 
755.8534163 
640.5740852 
804.7270616 
789.3892577 
680.1150176 
714.6481646 
668.4196508 
685.4458041 
656.3592204 
731.8226739 
712.1702926 
729.9095362 
730.4293843 
713.7010179 
665.6550607 
690.5527649 
703.2734753 
750.7072946 
719.8340149 
710.7902754 
694.0406858 
712.206999 
649.1158682 
777.545475 
733.2378739 
788.5751236 
741.3464044 
699.9777105 
830.0760805 
699.7033244 
712.7992324 
720.5098966 
773.0983212 
789.1642445 
754.1737931 
752.248616 
707.404325 
749.6723128 
723.896813 
670.2404334 
658.3972394 
656.4418248 
653.426906 
681.7793771 
633.1866634 
637.6791224 
632.7035858 
644.9790899 
686.0119442 
612.1690274 
667.9494083 
668.9198419 
860.0506471 
816.9346984 
673.591608 
748.2172876 
805.5130308 
857.4633475 
789.5394754 
782.4368628 
788.512318 
761.4745945 
865.3724016 
719.9919812 
752.6349147 
708.1724843 
676.5556198 
725.2002943 
690.1994461 
642.731934 
668.8836377 
669.0952998 
851.0854155 
723.6342969 
843.3910934 
753.4623013 
666.5852935 
808.9224924 
666.3978092 
623.5715143 
679.6468754 
626.223754 
711.0462363 
716.8830129 
633.2041869 
682.5907279 
812.8724996 
824.8938293 
748.9192068 
780.3232329 
732.23978 
716.7283958 
634.2796788 
844.7743951 
888.2024821 
665.6739526 
649.5092128 
676.636233 
666.9113605 
703.1641297 
813.6647057 
671.8529999 
749.6248092 
639.7318987 
641.5980592 
819.1875042 
837.3063364 
633.3906423 
697.5518456 
628.310933 
843.3250052 
818.7338229 
807.9793957 
734.0612624 
810.0604023 
825.1514821 
824.7002019 
745.8103468 
779.8717913 
745.1079453 
796.6429818 
796.8560876 
624.4873411 
672.7666875 
662.1544599 
624.5399957 
631.0556055 
684.120721 
730.2595025 
719.9958866 
683.2502047 
653.6075981 
730.1353047 
605.9512639 
624.9608148 
630.8825105 
871.2830222 
613.287528 
642.2747948 
649.8260167 
643.5159293 
662.1072365 
632.457286 
640.9343504 
623.0867674 
605.5600081 
815.1889003 
702.5232109 
731.1336171 
679.551369 
632.5437952 
668.9929693 
634.7764576 
643.8186885 
613.9272739 
681.6398621 
610.2418806 
654.589937 
618.0279069 
665.5968657 
648.6454782 
763.8167506 
822.7097101 
718.1520341 
755.2588413 
729.4167662 
709.1344887 
681.3265327 
628.0123082 
640.2424181 
835.5516422 
802.0266867 
791.2913131 
787.380716 
771.4973675 
709.6000947 
659.0491477 
845.6477897 
862.0364501 
828.544764 
641.1934672 
642.192975 
636.5798793 
850.8033226 
676.5675738 
724.8145544 
829.3317594 
854.5685561 
698.586844 
732.1852436 
719.9639228 
766.008623 
668.7795009 
610.5191648 
648.3515296 
692.4472176 
783.3797846 
636.646388 
660.3120297 
696.4045509 
639.3604503 
633.9839947 
749.4048746 
685.8757492 
665.1874308 
736.5874962 
856.4645107 
725.1410823 
642.3832353 
825.1320283 
776.3643175 
848.2231462 
810.7043309 
734.5570521 
706.7572948 
608.3496525 
683.4593416 
670.4226173 
801.0118257 
623.3834486 
634.5861072 
761.3189501 
634.8475666 
678.4963857 
734.0827518 
663.5605768 
783.5467923 
867.7519255 
823.1929439 
761.7014649 
799.2871313 
618.2561148 
733.1536952 
713.7051275 
793.7892853 
793.6004846 
837.5251734 
747.5065306 
768.4469858 
647.412543 
654.261788 
863.1818244 
804.3125009 
826.9957121 
858.1536141 
854.4379717 
863.4923239 
872.9070393 
816.0117725 
769.192899 
828.0982507 
683.2681794 
672.662754 
SCALARS ERROR_TAG double 1
LOOKUP_TABLE default
0.02449881891 
0.02488432729 
0.02205829596 
0.02190650492 
0.02233351329 
0.02508575706 
0.02217274569 
0.02382378885 
0.03160485193 
0.02545650437 
0.03001371588 
0.02413082065 
0.03189055425 
0.02140043239 
0.02130384864 
0.02199277527 
0.01996513539 
0.01952954867 
0.02074881019 
0.02199160981 
0.02050286987 
0.02096928141 
0.02295371375 
0.02449050569 
0.02178892746 
0.02317184563 
0.02291793129 
0.0223529371 
0.02064154896 
0.02231874618 
0.02496178176 
0.02352462348 
0.02264734122 
0.02071563154 
0.02098660046 
0.02371384342 
0.01757096291 
0.02355650864 
0.0257747366 
0.02016664376 
0.02150438775 
0.01999207856 
0.01909905248 
0.01991005655 
0.0192761704 
0.02048518592 
0.02324674695 
0.02160254287 
0.02020424416 
0.02069765762 
0.01957790309 
0.02107630854 
0.01822245401 
0.02489816151 
0.02413521172 
0.02207729352 
0.02045286289 
0.02669889712 
0.02362453313 
0.02213900026 
0.02473370415 
0.02341254445 
0.02013572446 
0.01975029315 
0.02726080847 
0.02494538185 
0.02324041225 
0.01877366926 
0.02972785927 
0.02002587769 
0.02418620486 
0.01989658513 
0.01975332064 
0.02158415794 
0.02039457076 
0.02102446549 
0.01812621153 
0.0228791109 
0.02096089113 
0.02246649384 
0.02304801352 
0.02261031952 
0.02235469398 
0.01963291013 
0.02037541943 
0.01978772138 
0.01979990995 
0.02271271442 
0.02070598107 
0.0232276584 
0.02222693984 
0.02203590677 
0.02211510122 
0.02320187461 
0.02162089189 
0.02185068972 
0.02113486028 
0.01924041733 
0.02222450427 
0.02110681171 
0.01990030015 
0.02167010726 
0.01928826577 
0.01959309847 
0.02197232361 
0.01934799864 
0.02089648665 
0.01854788207 
0.02008812305 
0.02062736312 
0.02046702153 
0.0237615963 
0.02373690071 
0.02596079368 
0.02239415661 
0.02252769051 
0.02310824046 
0.02301703491 
0.02285500092 
0.01894844872 
0.02268964123 
0.01986201596 
0.02162212969 
0.02029353566 
0.02245758862 
0.02320237556 
0.02507785987 
0.02037574585 
0.02287512223 
0.02263058946 
0.02210985392 
0.02149926728 
0.02787187926 
0.02846676206 
0.0247254324 
0.02166628997 
0.02538966602 
0.02230513774 
0.02538840004 
0.02284211336 
0.02356630299 
0.02453613944 
0.02555266852 
0.02813584115 
0.02456826493 
0.02463306931 
0.02190227614 
0.02383769884 
0.02125410463 
0.02084967143 
0.02043159028 
0.0212384028 
0.02739822211 
0.02115710367 
0.02111807827 
0.01855724975 
0.01971618535 
0.0225025263 
0.01958334553 
0.01928850251 
0.02201883398 
0.0198530211 
0.02010595912 
0.02072213148 
0.02011698888 
0.02575241082 
0.02120532079 
0.02096981011 
0.02304701313 
0.01989833583 
0.02079636168 
0.0234400924 
0.02282514379 
0.0216910467 
0.01978759845 
0.02151593974 
0.01994520885 
0.020439196 
0.01927047706 
0.02249123187 
0.01921828157 
0.01834788827 
0.01983021446 
0.02272994383 
0.02326344332 
0.01860645889 
0.02175421193 
0.02046426412 
0.01938106458 
0.02009293452 
0.0221641783 
0.02032271975 
0.02221186627 
0.02481857605 
0.02191317406 
0.01931104911 
0.02378001797 
0.01909889946 
0.01814326594 
0.02060270606 
0.02169509335 
0.02241504693 
0.02216251798 
0.02457528251 
0.02324361434 
0.02342353118 
0.01949656586 
0.02448215554 
0.02128225392 
0.02178711697 
0.02060969078 
0.02448561153 
0.0218010899 
0.01886327546 
0.01988725154 
0.02202282931 
0.0196890686 
0.01915546277 
0.02103781241 
0.02056110149 
0.02420909122 
0.02267434096 
0.02218276382 
0.02160537758 
0.02529434628 
0.02482129381 
0.02191166542 
0.02042210859 
0.02194637156 
0.02349716893 
0.02437077645 
0.02265276549 
0.02175915614 
0.02013728275 
0.032994272 
0.02461500464 
0.02610144342 
0.01698694105 
0.02076466646 
0.02311736209 
0.01795038002 
0.01883574296 
0.02014553873 
0.02033838057 
0.01892672358 
0.02082958519 
0.01669985041 
0.02362856954 
0.01842688651 
0.02375780866 
0.01981299072 
0.02278691089 
0.0214496778 
0.0187514262 
0.02276626481 
0.02441931185 
0.02468111148 
0.02024166262 
0.02009930306 
0.01923741205 
0.01968331504 
0.02473015488 
0.02079800279 
0.02402975285 
0.0244508328 
0.02310881597 
0.02754684938 
0.02020082761 
0.02116917636 
0.02924015623 
0.02183643195 
0.02088675862 
0.02025583056 
0.02019101239 
0.01800368923 
0.02480874326 
0.02296158244 
0.02352173522 
0.02270850203 
0.02465659968 
0.02085081339 
0.02432481028 
0.01882839718 
0.02236725322 
0.01983584088 
0.01797568966 
0.01972887031 
0.01921860867 
0.02258610212 
0.03208013544 
0.02039139266 
0.01916506177 
0.02442422711 
0.02065460252 
0.01999204956 
0.02259654698 
0.01851267026 
0.02290651295 
0.02056338878 
0.01927768958 
0.0189388398 
0.01776612872 
0.02364709838 
0.02176163066 
0.02166744484 
0.02246673239 
0.02137305877 
0.02015662773 
0.02313821571 
0.02643985892 
0.02216960222 
0.02310982658 
0.02110577085 
0.01995376184 
0.02049548496 
0.02150966418 
0.0221799655 
0.01992540664 
0.02316817989 
0.02284245298 
0.02307808953 
0.0230966495 
0.03126946365 
0.02388675759 
0.02556707729 
0.01969422218 
0.02261408932 
0.03354645199 
0.0240698535 
0.02523316728 
0.02287807535 
0.01894770347 
0.01694255613 
0.01907400694 
0.0205596881 
0.02181564887 
0.02434463665 
0.02126128415 
0.02100404526 
0.02357854947 
0.02112601359 
0.02360703764 
0.02311647312 
0.02075650435 
0.02452985489 
0.02313846079 
0.02185957919 
0.02102283976 
0.01826854708 
0.02236911793 
0.02025261954 
0.01902481692 
0.0218705188 
0.02739092448 
0.02390910634 
0.02086879409 
0.01954662904 
0.02112451494 
0.02167253325 
0.01833320546 
0.0205181873 
0.02247738944 
0.01862792699 
0.02074857884 
0.01762975309 
0.02342504509 
0.02110844513 
0.02284421105 
0.02097175657 
0.01920928527 
0.02081184591 
0.02064284109 
0.02623875225 
0.02046210234 
0.02027831485 
0.02263529739 
0.02117039228 
0.02253087759 
0.02350048917 
0.02092404131 
0.02103108814 
0.0190835004 
0.02475666969 
0.02519940586 
0.02087616982 
0.02274966396 
0.0247851459 
0.01931437527 
0.02420206332 
0.02141714617 
0.02034273633 
0.02568805684 
0.02101352633 
0.02363236227 
0.01994602506 
0.02359860205 
0.01758930742 
0.01858380546 
0.02065577435 
0.02023931697 
0.02216439874 
0.0227340883 
0.02329403667 
0.02221189424 
0.02432308661 
0.02438526465 
0.02146139818 
0.02078404912 
0.02572034001 
0.01628270482 
0.02060517266 
0.01841438774 
0.02170622529 
0.01940148406 
0.02093713607 
0.02063755179 
0.02819342253 
0.02087307058 
0.02072725943 
0.01962253509 
0.02188204665 
0.02081687249 
0.02025166641 
0.01902012629 
0.02038632159 
0.02284673828 
0.02207518376 
0.01989896225 
0.02555489245 
0.02133900375 
0.01923715301 
0.0255092903 
0.01804532968 
0.02100384496 
0.02344701403 
0.01767827587 
0.02449485686 
0.02223980834 
