# vtk DataFile Version 3.0
MOAB 4.99 (Alpha)
ASCII
DATASET UNSTRUCTURED_GRID
POINTS 991 double
3 1 1
3 -1 1
3 -0.6 1
3 -0.2 1
3 0.2 1
3 0.6 1
3 -1 -1
3 -1 -0.6
3 -1 -0.2
3 -1 0.2
3 -1 0.6
3 1 -1
3 0.6 -1
3 0.2 -1
3 -0.2 -1
3 -0.6 -1
3 1 0.6
3 1 0.2
3 1 -0.2
3 1 -0.6
3 0.4078020432 -0.6749386695
3 -0.002766679691 -0.6463410443
3 -0.4112057218 -0.6804751274
3 0.6738065205 0.4096535765
3 0.6392445975 0.001240977363
3 0.6700947697 -0.4102754248
3 -0.3800088874 0.6821110447
3 0.01793759988 0.6594720195
3 0.4138645449 0.6772501547
3 -0.6747109622 -0.4230382477
3 -0.6486777191 -0.04064326267
3 -0.6106821934 0.3715558838
3 0.7355793626 -0.7370428189
3 -0.7371833368 -0.740702675
3 0.7375342131 0.7373807462
3 -0.7181382162 0.7307333857
3 0.2352751843 -0.2445881183
3 -0.2727034516 -0.2738282128
3 0.2488119959 0.2685945903
3 -0.1884632912 0.3500036415
3 -0.06527557032 0.0371682853
3 -0.3571604451 0.08885126704
10 1 1
10 -1 1
10 0.6 1
10 0.2 1
10 -0.2 1
10 -0.6 1
10 -1 -1
10 -1 0.6
10 -1 0.2
10 -1 -0.2
10 -1 -0.6
10 1 -1
10 -0.6 -1
10 -0.2 -1
10 0.2 -1
10 0.6 -1
10 1 -0.6
10 1 -0.2
10 1 0.2
10 1 0.6
10 0.4052531952 0.6719438381
10 -0.001326739737 0.6398182875
10 -0.4084466782 0.6730790076
10 -0.671668119 0.4109975243
10 -0.6409559612 0.002665308352
10 -0.6741562537 -0.4067531861
10 -0.4126332896 -0.6703225438
10 -0.005823851008 -0.6385848783
10 0.4033337139 -0.671818987
10 0.6657077798 -0.40925766
10 0.6331965555 -5.201324309e-05
10 0.6677757402 0.4090861353
10 0.7346057871 0.7362059947
10 -0.7360229594 0.7368153064
10 -0.7373579087 -0.735415146
10 0.7338082987 -0.7362153294
10 0.2405618544 0.2463031768
10 -0.2488935914 0.2473010883
10 -0.2507661259 -0.2443109294
10 0.2398134703 -0.2452073142
10 -0.004821098151 0.001021505389
9.611111111 1 -1
9.222222222 1 -1
8.833333333 1 -1
8.444444444 1 -1
8.055555556 1 -1
7.666666667 1 -1
7.277777778 1 -1
6.888888889 1 -1
6.5 1 -1
6.111111111 1 -1
5.722222222 1 -1
5.333333333 1 -1
4.944444444 1 -1
4.555555556 1 -1
4.166666667 1 -1
3.777777778 1 -1
3.388888889 1 -1
3.388888889 -1 -1
3.777777778 -1 -1
4.166666667 -1 -1
4.555555556 -1 -1
4.944444444 -1 -1
5.333333333 -1 -1
5.722222222 -1 -1
6.111111111 -1 -1
6.5 -1 -1
6.888888889 -1 -1
7.277777778 -1 -1
7.666666667 -1 -1
8.055555556 -1 -1
8.444444444 -1 -1
8.833333333 -1 -1
9.222222222 -1 -1
9.611111111 -1 -1
9.475998682 0.635536549 -1
9.050778679 0.6376323359 -1
8.644731394 0.6524287943 -1
8.251207926 0.6588417959 -1
7.860952665 0.6615090463 -1
7.47168141 0.6626980856 -1
7.082730559 0.6632214012 -1
6.693866541 0.6634322606 -1
6.305010827 0.6635015526 -1
5.916141326 0.6635100857 -1
5.527250491 0.6634953849 -1
5.138327804 0.6634773361 -1
4.749355696 0.6634656274 -1
4.35546384 0.6606773696 -1
3.946920807 0.6509364685 -1
3.522069168 0.6475171337 -1
9.683564902 -0.335850451 -1
9.656190968 -0.001093141104 -1
9.683371263 0.3342642017 -1
3.548835373 -0.6484388432 -1
3.965704098 -0.6635314353 -1
4.359197406 -0.6663573588 -1
4.749198126 -0.6670103116 -1
5.138537377 -0.6674208937 -1
5.527617247 -0.6676585868 -1
5.916569015 -0.6677687859 -1
6.305459175 -0.6678134962 -1
6.694315149 -0.6678467273 -1
7.083141286 -0.6679283853 -1
7.471943462 -0.6681577548 -1
7.860786476 -0.6686908946 -1
8.251086686 -0.667966666 -1
8.644941232 -0.6615036162 -1
9.050388748 -0.6437917491 -1
9.475209274 -0.6374148592 -1
3.31306466 0.3547037046 -1
3.338737589 0.04492747269 -1
3.383337125 -0.3006966981 -1
9.281391386 0.2365030706 -1
8.839143368 0.3043463875 -1
8.445620486 0.319936959 -1
8.055539719 0.3248676775 -1
7.666067028 0.3270715599 -1
7.277003806 0.3281742519 -1
6.888118891 0.328685024 -1
6.499278225 0.3288925301 -1
6.110425804 0.3289641809 -1
5.721534804 0.3289955858 -1
5.332572622 0.329050609 -1
4.943493126 0.3291699651 -1
4.551257007 0.3264352381 -1
4.146382704 0.3140326777 -1
3.695275218 0.2746035209 -1
9.280790073 -0.2441722493 -1
3.777013507 -0.3396410167 -1
4.163203398 -0.3393353371 -1
4.553613979 -0.3366823476 -1
4.943452409 -0.3359197579 -1
5.332747236 -0.3360460677 -1
5.721795464 -0.3361928637 -1
6.110719108 -0.3362737199 -1
6.499575679 -0.3363413401 -1
6.88838919 -0.3364870854 -1
7.277186808 -0.3368594471 -1
7.666056844 -0.3376713408 -1
8.055791421 -0.33805613 -1
8.446058903 -0.3343068537 -1
8.838932461 -0.3169197984 -1
8.974816722 -0.005980779444 -1
8.632347325 -0.007016981087 -1
8.249280456 -0.007000588633 -1
7.860671616 -0.006128707231 -1
7.471573769 -0.005109247897 -1
7.082655911 -0.004421596493 -1
6.693810847 -0.004082714285 -1
6.3049656 -0.00393577257 -1
5.916079822 -0.003854502132 -1
5.527110608 -0.003751952622 -1
5.137993046 -0.003595314239 -1
4.74796771 -0.004766061811 -1
4.354660694 -0.01070619839 -1
3.961791293 -0.02783630085 -1
3.631230946 -0.06972860441 -1
9.611111111 -1 1
9.222222222 -1 1
8.833333333 -1 1
8.444444444 -1 1
8.055555556 -1 1
7.666666667 -1 1
7.277777778 -1 1
6.888888889 -1 1
6.5 -1 1
6.111111111 -1 1
5.722222222 -1 1
5.333333333 -1 1
4.944444444 -1 1
4.555555556 -1 1
4.166666667 -1 1
3.777777778 -1 1
3.388888889 -1 1
3.517242518 -1 -0.6397823763
3.939887439 -1 -0.6405683698
4.349206568 -1 -0.6510002149
4.746207335 -1 -0.6574274135
5.13811135 -1 -0.6607449531
5.528009339 -1 -0.6623519183
5.917173503 -1 -0.6630784687
6.306105346 -1 -0.6633769875
6.694982019 -1 -0.663480922
7.083859126 -1 -0.6635021653
7.472757636 -1 -0.6634950746
7.86170527 -1 -0.6635043541
8.250782816 -1 -0.6636332805
8.643343703 -1 -0.6604692063
9.048386302 -1 -0.6459671733
9.473926996 -1 -0.6400309287
9.682749051 -1 0.3304729417
9.654602385 -1 -0.005130662797
9.681767632 -1 -0.3391035561
9.475519815 -1 0.6332955936
9.050884101 -1 0.6380913854
8.645720583 -1 0.6559106743
8.252442893 -1 0.6637082481
7.86199698 -1 0.6665060019
7.472550067 -1 0.6674322973
7.08348295 -1 0.6677210152
6.694557585 -1 0.6678101585
6.30569008 -1 0.6678638272
5.916855039 -1 0.6679839829
5.528019453 -1 0.6683167443
5.139011476 -1 0.6691152355
4.749244222 -1 0.6706933093
4.357633085 -1 0.6738771327
3.963321257 -1 0.6737641851
3.546900098 -1 0.6571889742
3.307972 -1 -0.3458002842
3.333721558 -1 -0.03426015713
3.379775377 -1 0.3108127695
3.688670022 -1 -0.2607999662
4.138540696 -1 -0.2990228426
4.545480898 -1 -0.3147441607
4.94129585 -1 -0.32231283
5.332857978 -1 -0.3260043571
5.722649785 -1 -0.327748082
6.111775586 -1 -0.3285196802
6.5006938 -1 -0.3288298945
6.889575767 -1 -0.328942631
7.278497431 -1 -0.3290084893
7.667551742 -1 -0.3291851027
8.056972999 -1 -0.3298544201
8.446568646 -1 -0.3290657148
8.838428066 -1 -0.3159449927
9.279509505 -1 -0.2456660586
9.28043997 -1 0.2359814688
8.839765595 -1 0.3079211365
8.447320378 -1 0.3265649923
8.057430178 -1 0.3329762596
7.667619965 -1 0.335251224
7.27833165 -1 0.3359990578
6.889320859 -1 0.3362414183
6.500429805 -1 0.3363682459
6.111581537 -1 0.3365880291
5.722681298 -1 0.3371430988
5.333435354 -1 0.3384424418
4.94305496 -1 0.3411301072
4.55092463 -1 0.3466372791
4.158423997 -1 0.3536953396
3.771798139 -1 0.3544176444
3.955649712 -1 0.04313147074
4.349171637 -1 0.02403677456
4.744697065 -1 0.01398934099
5.137270538 -1 0.008644226938
5.527719781 -1 0.005992426486
5.917119272 -1 0.004745817659
6.306125855 -1 0.004201196248
6.695032286 -1 0.003968564667
7.083972225 -1 0.003808322242
7.4730744 -1 0.003467136352
7.862585812 -1 0.002384925102
8.251067791 -1 -5.984226965e-05
8.633263785 -1 -0.002838499651
8.974281384 -1 -0.004109389126
3.625922962 -1 0.08266035227
3.388888889 1 1
3.777777778 1 1
4.166666667 1 1
4.555555556 1 1
4.944444444 1 1
5.333333333 1 1
5.722222222 1 1
6.111111111 1 1
6.5 1 1
6.888888889 1 1
7.277777778 1 1
7.666666667 1 1
8.055555556 1 1
8.444444444 1 1
8.833333333 1 1
9.222222222 1 1
9.611111111 1 1
9.475998682 -0.635536549 1
9.050778679 -0.6376323359 1
8.644731394 -0.6524287943 1
8.251207926 -0.6588417959 1
7.860952665 -0.6615090463 1
7.47168141 -0.6626980856 1
7.082730559 -0.6632214012 1
6.693866541 -0.6634322606 1
6.305010827 -0.6635015526 1
5.916141326 -0.6635100857 1
5.527250491 -0.6634953849 1
5.138327804 -0.6634773361 1
4.749355696 -0.6634656274 1
4.35546384 -0.6606773696 1
3.946920807 -0.6509364685 1
3.522069168 -0.6475171337 1
9.683564902 0.335850451 1
9.656190968 0.001093141104 1
9.683371263 -0.3342642017 1
3.548835373 0.6484388432 1
3.965704098 0.6635314353 1
4.359197406 0.6663573588 1
4.749198126 0.6670103116 1
5.138537377 0.6674208937 1
5.527617247 0.6676585868 1
5.916569015 0.6677687859 1
6.305459175 0.6678134962 1
6.694315149 0.6678467273 1
7.083141286 0.6679283853 1
7.471943462 0.6681577548 1
7.860786476 0.6686908946 1
8.251086686 0.667966666 1
8.644941232 0.6615036162 1
9.050388748 0.6437917491 1
9.475209274 0.6374148592 1
3.31306466 -0.3547037046 1
3.338737589 -0.04492747269 1
3.383337125 0.3006966981 1
9.281391386 -0.2365030706 1
8.839143368 -0.3043463875 1
8.445620486 -0.319936959 1
8.055539719 -0.3248676775 1
7.666067028 -0.3270715599 1
7.277003806 -0.3281742519 1
6.888118891 -0.328685024 1
6.499278225 -0.3288925301 1
6.110425804 -0.3289641809 1
5.721534804 -0.3289955858 1
5.332572622 -0.329050609 1
4.943493126 -0.3291699651 1
4.551257007 -0.3264352381 1
4.146382704 -0.3140326777 1
3.695275218 -0.2746035209 1
9.280790073 0.2441722493 1
3.777013507 0.3396410167 1
4.163203398 0.3393353371 1
4.553613979 0.3366823476 1
4.943452409 0.3359197579 1
5.332747236 0.3360460677 1
5.721795464 0.3361928637 1
6.110719108 0.3362737199 1
6.499575679 0.3363413401 1
6.88838919 0.3364870854 1
7.277186808 0.3368594471 1
7.666056844 0.3376713408 1
8.055791421 0.33805613 1
8.446058903 0.3343068537 1
8.838932461 0.3169197984 1
8.974816722 0.005980779444 1
8.632347325 0.007016981087 1
8.249280456 0.007000588633 1
7.860671616 0.006128707231 1
7.471573769 0.005109247897 1
7.082655911 0.004421596493 1
6.693810847 0.004082714285 1
6.3049656 0.00393577257 1
5.916079822 0.003854502132 1
5.527110608 0.003751952622 1
5.137993046 0.003595314239 1
4.74796771 0.004766061811 1
4.354660694 0.01070619839 1
3.961791293 0.02783630085 1
3.631230946 0.06972860441 1
3.517242518 1 0.6397823763
3.939887439 1 0.6405683698
4.349206568 1 0.6510002149
[...]
CELL_DATA 6777
SCALARS TALLY_TAG double 1
LOOKUP_TABLE default
0 
0 
0 
0 
0 
0 
0 
0 
0 
0 
0 
0 
0 
0 
0 
0 
0 
0 
0 
0 
0 
0 
0 
0 
0 
0 
0 
0 
0 
0 
0 
0 
0 
0 
0 
0 
0 
0 
0 
0 
0 
0 
0 
0 
0 
0 
0 
0 
0 
0 
0 
0 
0 
0 
0 
0 
0 
0 
0 
0 
0 
0 
0 
0 
0 
0 
0 
0 
0 
0 
0 
0 
0 
0 
0 
0 
0 
0 
0 
0 
0 
0 
0 
0 
0 
0 
0 
0 
0 
0 
0 
0 
0 
0 
0 
0 
0 
0 
0 
0 
0 
0 
0 
0 
0 
0 
0 
0 
0 
0 
0 
0 
0 
0 
0 
0 
0 
0 
0 
0 
0 
0 
0 
0 
0 
0 
0 
0 
0 
0 
0 
0 
0 
0 
0 
0 
0 
0 
0 
0 
0 
0 
0 
0 
0 
0 
0 
0 
0 
0 
0 
0 
0 
0 
0 
0 
0 
0 
0 
0 
0 
0 
0 
0 
0 
0 
0 
0 
0 
0 
0 
0 
0 
0 
0 
0 
0 
0 
0 
0 
0 
0 
0 
0 
0 
0 
0 
0 
0 
0 
0 
0 
0 
0 
0 
0 
0 
0 
0 
0 
0 
0 
0 
0 
0 
0 
0 
0 
0 
0 
0 
0 
0 
0 
0 
0 
0 
0 
0 
0 
0 
0 
0 
0 
0 
0 
0 
0 
0 
0 
0 
0 
0 
0 
0 
0 
0 
0 
0 
0 
0 
0 
0 
0 
0 
0 
0 
0 
0 
0 
0 
0 
0 
0 
0 
0 
0 
0 
0 
0 
0 
0 
0 
0 
0 
0 
0 
0 
0 
0 
0 
0 
0 
0 
0 
0 
0 
0 
0 
0 
0 
0 
0 
0 
0 
0 
0 
0 
0 
0 
0 
0 
0 
0 
0 
0 
0 
0 
0 
0 
0 
0 
0 
0 
0 
0 
0 
0 
0 
0 
0 
0 
0 
0 
0 
0 
0 
0 
0 
0 
0 
0 
0 
0 
0 
0 
0 
0 
0 
0 
0 
0 
0 
0 
0 
0 
0 
0 
0 
0 
0 
0 
0 
0 
0 
0 
0 
0 
0 
0 
0 
0 
0 
0 
0 
0 
0 
0 
0 
0 
0 
0 
0 
0 
0 
0 
0 
0 
0 
0 
0 
0 
0 
0 
0 
0 
0 
0 
0 
0 
0 
0 
0 
0 
0 
0 
0 
0 
0 
0 
0 
0 
0 
0 
0 
0 
0 
0 
0 
0 
0 
0 
0 
0 
0 
0 
0 
0 
0 
0 
0 
0 
0 
0 
0 
0 
0 
0 
0 
0 
0 
0 
0 
0 
0 
0 
0 
0 
0 
0 
0 
0 
0 
0 
0 
0 
0 
0 
0 
0 
0 
0 
0 
0 
0 
0 
0 
0 
0 
0 
0 
0 
0 
0 
0 
0 
0 
0 
0 
0 
0 
0 
0 
0 
0 
0 
0 
0 
0 
0 
0 
0 
0 
0 
0 
0 
0 
0 
0 
0 
0 
0 
0 
0 
0 
0 
0 
0 
0 
0 
0 
0 
0 
0 
0 
0 
0 
0 
0 
0 
0 
0 
0 
0 
0 
0 
0 
0 
0 
0 
0 
0 
0 
0 
0 
0 
0 
0 
0 
0 
0 
0 
0 
0 
0 
0 
0 
0 
0 
0 
0 
0 
0 
0 
0 
0 
0 
0 
0 
0 
0 
0 
0 
0 
0 
0 
0 
0 
0 
0 
0 
0 
0 
0 
0 
0 
0 
0 
0 
0 
0 
0 
0 
0 
0 
0 
0 
0 
0 
0 
0 
0 
0 
0 
0 
0 
0 
0 
0 
0 
0 
0 
0 
0 
0 
0 
0 
0 
0 
0 
0 
0 
0 
0 
0 
0 
0 
0 
0 
0 
0 
0 
0 
0 
0 
0 
0 
0 
0 
0 
0 
0 
0 
0 
0 
0 
0 
0 
0 
0 
0 
0 
0 
0 
0 
0 
0 
0 
0 
0 
0 
0 
0 
0 
0 
0 
0 
0 
0 
0 
0 
0 
0 
0 
0 
0 
0 
0 
0 
0 
0 
0 
0 
0 
0 
0 
0 
0 
0 
0 
0 
0 
0 
0 
0 
0 
0 
0 
0 
0 
0 
0 
0 
0 
0 
0 
0 
0 
0 
0 
0 
0 
0 
0 
0 
0 
0 
0 
0 
0 
0 
0 
0 
0 
0 
0 
0 
0 
0 
0 
0 
0 
0 
0 
0 
0 
0 
0 
0 
0 
0 
0 
0 
0 
0 
0 
0 
0 
0 
0 
0 
0 
0 
0 
0 
0 
0 
0 
0 
0 
0 
0 
0 
0 
0 
0 
0 
0 
0 
0 
0 
0 
0 
0 
0 
0 
0 
0 
0 
0 
0 
0 
0 
0 
0 
0 
0 
0 
0 
0 
0 
0 
0 
0 
0 
0 
0 
0 
0 
0 
0 
0 
0 
0 
0 
0 
0 
0 
0 
0 
0 
0 
0 
0 
0 
0 
0 
0 
0 
0 
0 
0 
0 
0 
0 
0 
0 
0 
0 
0 
0 
0 
0 
0 
0 
0 
0 
0 
0 
0 
0 
0 
0 
0 
0 
0 
0 
0 
0 
0 
0 
0 
0 
0 
0 
0 
0 
0 
0 
0 
0 
0 
0 
0 
0 
0 
0 
0 
0 
0 
0 
0 
0 
0 
0 
0 
0 
0 
0 
0 
0 
0 
0 
0 
0 
0 
0 
0 
0 
0 
0 
0 
0 
0 
0 
0 
0 
0 
0 
0 
0 
0 
0 
0 
0 
0 
0 
0 
0 
0 
0 
0 
0 
0 
0 
0 
0 
0 
0 
0 
0 
0 
0 
0 
0 
0 
0 
0 
0 
0 
0 
0 
0 
0 
0 
0 
0 
0 
0 
0 
0 
0 
0 
0 
0 
0 
0 
0 
0 
0 
0 
0 
0 
0 
0 
0 
0 
0 
0 
0 
0 
0 
0 
0 
0 
0 
0 
0 
0 
0 
0 
0 
0 
0 
0 
0 
0 
0 
0 
0 
0 
0 
0 
0 
0 
0 
0 
0 
0 
0 
0 
0 
0 
0 
0 
0 
0 
0 
0 
0 
0 
0 
0 
0 
0 
0 
0 
0 
0 
0 
0 
0 
0 
0 
0 
0 
0 
0 
0 
0 
0 
0 
0 
0 
0 
0 
0 
0 
0 
0 
0 
0 
0 
0 
0 
0 
0 
0 
0 
0 
0 
0 
0 
0 
0 
0 
0 
0 
0 
0 
0 
0 
0 
0 
0 
0 
0 
0 
0 
0 
0 
0 
0 
0 
0 
0 
0 
0 
0 
0 
0 
0 
0 
0 
0 
0 
0 
0 
0 
0 
0 
0 
0 
0 
0 
0 
0 
0 
0 
0 
0 
0 
0 
0 
0 
0 
0 
0 
0 
0 
0 
0 
0 
0 
0 
0 
0 
0 
0 
0 
0 
0 
0 
0 
0 
0 
0 
0 
0 
0 
0 
0 
0 
0 
0 
0 
0 
0 
0 
0 
0 
0 
0 
0 
0 
0 
0 
0 
0 
0 
0 
0 
0 
0 
0 
0 
0 
0 
0 
0 
0 
0 
0 
0 
0 
0 
0 
0 
0 
0 
0 
0 
0 
0 
0 
0 
0 
0 
0 
0 
0 
0 
0 
0 
0 
0 
0 
0 
0 
0 
0 
0 
0 
0 
0 
0 
0 
0 
0 
0 
0 
0 
0 
0 
0 
0 
0 
0 
0 
0 
0 
0 
0 
0 
0 
0 
0 
0 
0 
0 
0 
0 
0 
0 
0 
0 
0 
0 
0 
0 
0 
0 
0 
0 
0 
0 
0 
0 
0 
0 
0 
0 
0 
0 
0 
0 
0 
0 
0 
0 
0 
0 
0 
0 
0 
0 
0 
0 
0 
0 
0 
0 
0 
0 
0 
0 
0 
0 
0 
0 
0 
0 
0 
0 
0 
0 
0 
0 
0 
0 
0 
0 
0 
0 
0 
0 
0 
0 
0 
0 
0 
0 
0 
0 
0 
0 
0 
0 
0 
0 
0 
0 
0 
0 
0 
0 
0 
0 
0 
0 
0 
0 
0 
0 
0 
0 
0 
0 
0 
0 
0 
0 
0 
0 
0 
0 
0 
0 
0 
0 
0 
0 
0 
0 
0 
0 
0 
0 
0 
0 
0 
0 
0 
0 
0 
0 
0 
0 
0 
0 
0 
0 
0 
0 
0 
0 
0 
0 
0 
0 
0 
0 
0 
0 
0 
0 
0 
0 
0 
0 
0 
0 
0 
0 
0 
0 
0 
0 
0 
0 
0 
0 
0 
0 
0 
0 
0 
0 
0 
0 
0 
0 
0 
0 
0 
0 
0 
0 
0 
0 
0 
0 
0 
0 
0 
0 
0 
0 
0 
0 
0 
0 
0 
0 
0 
0 
0 
0 
0 
0 
0 
0 
0 
0 
0 
0 
0 
0 
0 
0 
0 
0 
0 
0 
0 
0 
0 
0 
0 
0 
0 
0 
0 
0 
0 
0 
0 
0 
0 
0 
0 
0 
0 
0 
0 
0 
0 
0 
0 
0 
0 
0 
0 
0 
0 
0 
0 
0 
0 
0 
0 
0 
0 
0 
0 
0 
0 
0 
0 
0 
0 
0 
0 
0 
0 
0 
0 
0 
0 
0 
0 
0 
0 
0 
0 
0 
0 
0 
0 
0 
0 
0 
0 
0 
0 
0 
0 
0 
0 
0 
0 
0 
0 
0 
0 
0 
0 
0 
0 
0 
0 
0 
0 
0 
0 
0 
0 
0 
0 
0 
0 
0 
0 
0 
0 
0 
0 
0 
0 
0 
0 
0 
0 
0 
0 
0 
0 
0 
0 
0 
0 
0 
0 
0 
0 
0 
0 
0 
0 
0 
0 
0 
0 
0 
0 
0 
0 
0 
0 
0 
0 
0 
0 
0 
0 
0 
0 
0 
0 
0 
0 
0 
0 
0 
0 
0 
0 
0 
0 
0 
0 
0 
0 
0 
0 
0 
0 
0 
0 
0 
0 
0 
0 
0 
0 
0 
0 
0 
0 
0 
0 
0 
0 
0 
0 
0 
0 
0 
0 
0 
0 
0 
0 
0 
0 
0 
0 
0 
0 
0 
0 
0 
0 
0 
0 
0 
0 
0 
0 
0 
0 
0 
0 
0 
0 
0 
0 
0 
0 
0 
0 
0 
0 
0 
0 
0 
0 
0 
0 
0 
0 
0 
0 
0 
0 
0 
0 
0 
0 
0 
0 
0 
0 
0 
0 
0 
0 
0 
0 
0 
0 
0 
0 
0 
0 
0 
0 
0 
0 
0 
0 
0 
0 
0 
0 
0 
0 
0 
0 
0 
0 
0 
0 
0 
0 
0 
0 
0 
0 
0 
0 
0 
0 
0 
0 
0 
0 
0 
0 
0 
0 
0 
0 
0 
0 
0 
0 
0 
0 
0 
0 
0 
0 
0 
0 
0 
0 
0 
0 
0 
0 
0 
0 
0 
0 
0 
0 
0 
0 
0 
0 
0 
0 
0 
0 
0 
0 
0 
0 
0 
0 
0 
0 
0 
0 
0 
0 
0 
0 
0 
0 
0 
0 
0 
0 
0 
0 
0 
0 
0 
0 
0 
0 
0 
0 
0 
0 
0 
0 
0 
0 
0 
0 
0 
0 
0 
0 
0 
0 
0 
0 
0 
0 
0 
0 
0 
0 
0 
0 
0 
0 
0 
0 
0 
0 
0 
0 
0 
0 
0 
0 
0 
0 
0 
0 
0 
0 
0 
0 
0 
0 
0 
0 
0 
0 
0 
0 
0 
0 
0 
0 
0 
0 
0 
0 
0 
0 
0 
0 
0 
0 
0 
0 
0 
0 
0 
0 
0 
0 
0 
0 
0 
0 
0 
0 
0 
0 
0 
0 
0 
0 
0 
0 
0 
0 
0 
0 
0 
0 
0 
0 
0 
0 
0 
0 
0 
0 
0 
0 
0 
0 
0 
0 
0 
0 
0 
0 
0 
0 
0 
0 
0 
0 
0 
0 
0 
0 
0 
0 
0 
0 
0 
0 
0 
0 
0 
0 
0 
0 
0 
0 
0 
0 
0 
0 
0 
0 
0 
0 
0 
0 
0 
0 
0 
0 
0 
0 
0 
0 
0 
0 
0 
0 
0 
0 
0 
0 
0 
0 
0 
0 
0 
0 
0 
0 
0 
0 
0 
0 
0 
0 
0 
0 
0 
0 
0 
0 
0 
0 
0 
0 
0 
0 
0 
0 
0 
0 
0 
0 
0 
0 
0 
0 
0 
0 
0 
0 
0 
0 
0 
0 
0 
0 
0 
0 
0 
0 
0 
0 
0 
0 
0 
0 
0 
0 
0 
0 
0 
0 
0 
0 
0 
0 
0 
0 
0 
0 
0 
0 
0 
0 
0 
0 
0 
0 
0 
0 
0 
0 
0 
0 
0 
0 
0 
0 
0 
0 
0 
0 
0 
0 
0 
0 
0 
0 
0 
0 
0 
0 
0 
0 
0 
0 
0 
0 
0 
0 
0 
0 
0 
0 
0 
0 
0 
0 
0 
0 
0 
0 
0 
0 
0 
0 
0 
0 
0 
0 
0 
0 
0 
0 
0 
0 
0 
0 
0 
0 
0 
0 
0 
0 
0 
0 
0 
0 
0 
0 
0 
0 
0 
0 
0 
0 
0 
0 
0 
0 
0 
0 
0 
0 
0 
0 
0 
0 
0 
0 
0 
0 
0 
0 
0 
0 
0 
0 
0 
0 
0 
0 
0 
0 
0 
0 
0 
0 
0 
0 
0 
0 
0 
0 
0 
0 
0 
0 
0 
0 
0 
0 
0 
0 
0 
0 
0 
0 
0 
0 
0 
0 
0 
0 
0 
0 
0 
0 
0 
0 
0 
0 
0 
0 
0 
0 
0 
0 
0 
0 
0 
0 
0 
0 
0 
0 
0 
0 
0 
0 
0 
0 
0 
0 
0 
0 
0 
0 
0 
0 
0 
0 
0 
0 
0 
0 
0 
0 
0 
0 
0 
0 
0 
0 
0 
0 
0 
0 
0 
0 
0 
0 
0 
0 
0 
0 
0 
0 
0 
0 
0 
0 
0 
0 
0 
0 
0 
0 
0 
0 
0 
0 
0 
0 
0 
0 
0 
0 
0 
0 
0 
0 
0 
0 
0 
0 
0 
0 
0 
0 
0 
0 
0 
0 
0 
0 
0 
0 
0 
0 
0 
0 
0 
0 
0 
0 
0 
0 
0 
0 
0 
0 
0 
0 
0 
0 
0 
0 
0 
0 
0 
0 
0 
0 
0 
0 
0 
0 
0 
0 
0 
0 
0 
0 
0 
0 
0 
0 
0 
0 
0 
0 
0 
0 
0 
0 
0 
0 
0 
0 
0 
0 
0 
0 
0 
0 
0 
0 
0 
0 
0 
0 
0 
0 
0 
0 
0 
0 
0 
0 
0 
0 
0 
0 
0 
0 
0 
0 
0 
0 
0 
0 
0 
0 
0 
0 
0 
0 
0 
0 
0 
0 
0 
0 
0 
0 
0 
0 
0 
0 
0 
0 
0 
0 
0 
0 
0 
0 
0 
0 
0 
0 
0 
0 
0 
0 
0 
0 
0 
0 
0 
0 
0 
0 
0 
0 
0 
0 
0 
0 
0 
0 
0 
0 
0 
0 
0 
0 
0 
0 
0 
0 
0 
0 
0 
0 
0 
0 
0 
0 
0 
0 
0 
0 
0 
0 
0 
0 
0 
0 
0 
0 
0 
0 
0 
0 
0 
0 
0 
0 
0 
0 
0 
0 
0 
0 
0 
0 
0.02727470653 
0.07414909579 
0.07342360491 
0.07198058048 
0.07350682713 
0.07296445168 
0.07094337716 
0.02513861277 
0.02726387348 
0.02664545606 
0.02903447504 
0.02898308502 
0.02724982496 
0.04610917905 
0.05252103333 
0.04809402242 
0.04949117478 
0.04348280539 
0.04709800443 
0.04516770738 
0.04386311085 
0.02417845724 
0.0469280997 
0.02509028565 
0.04663455674 
0.04413033775 
0.05000880228 
0.04306757159 
0.04160156904 
0.0454133679 
0.04529473972 
0.02921416884 
0.04243812553 
0.03827047159 
0.0418235188 
0.04041957865 
0.05176183717 
0.04231101384 
0.04304150782 
0.03969010902 
0.07076411101 
0.07601649532 
0.07526305155 
0.07415507207 
0.07444515731 
0.07295494486 
0.05901990005 
0.05806684668 
0.3565132801 
0.06192279612 
0.05724524787 
0.05893458352 
0.06069286515 
0.06003944517 
0.05291117346 
0.04853805109 
0.05375951356 
0.04655338198 
0.05059784383 
0.04939854286 
0.04897896703 
0.05109696279 
0.05272992914 
0.03293109256 
0.03323023327 
0.03283579655 
0.03318902268 
0.03240099372 
0.04901806771 
0.04818463577 
0.04774484742 
0.05153269816 
0.05664434557 
0.04827343958 
0.04922246811 
0.04909714036 
0.03950694884 
0.05113734753 
0.04058902807 
0.04239586247 
0.03925891207 
0.03309459529 
0.04084631024 
0.03500643813 
0.03883615615 
0.03845266884 
0.04034963076 
0.03671176574 
0.03600846575 
0.03607271928 
0.04010746577 
0.04103028286 
0.03918161459 
0.04004774615 
0.0414421968 
0.0411564806 
0.04448502668 
0.03713476258 
0.04428890278 
0.04506190575 
0.04292319579 
0.04702498012 
0.04256182741 
0.04510349296 
0.04577847062 
0.05511290711 
0.05831250939 
0.05872651179 
0.06005991784 
0.05621028121 
0.06041250105 
0.04824858218 
0.04536145263 
0.05781018261 
0.05559157478 
0.05592082692 
0.052293235 
0.05235849344 
0.03070404284 
0.03370984306 
0.03382882538 
0.03305538467 
0.03428451933 
0.03314977686 
0.07035404956 
0.07429301164 
0.07384241368 
0.07281667069 
0.07533885359 
0.07475113776 
0.06945807173 
0.07478053081 
0.07655954346 
0.0761093846 
0.07189793982 
0.04050120442 
0.06728429738 
0.03957530657 
0.03854329761 
0.04234560267 
0.036920072 
0.04168031976 
0.03899527786 
0.0690406979 
0.3107682808 
0.06397837219 
0.06467598384 
0.07186377099 
0.06987068434 
0.06900892108 
0.03478018396 
0.03730948557 
0.03475041354 
0.03519507211 
0.03783627204 
0.04004916913 
0.03364399434 
0.03925766652 
0.02360256574 
0.02473781223 
0.02621342216 
0.02358462538 
0.02525103525 
0.04647297054 
0.04732604122 
0.04774098305 
0.04553241503 
0.07017425233 
0.06231082744 
0.06744156494 
0.06537019253 
0.06869622531 
0.06350565634 
0.07721597875 
0.07420586232 
0.07552974562 
0.07488958279 
0.07655995625 
0.07547593072 
0.07041149473 
0.05479480606 
0.05379160138 
0.05379822118 
0.05632921436 
0.0340496827 
0.03527107333 
0.03450994235 
0.03289327852 
0.03158421789 
0.02638449143 
0.02292724844 
0.02409900441 
0.02608493796 
0.02975708812 
0.03166589322 
0.03069687559 
0.03033008476 
0.03118223969 
0.02848050512 
0.03337669807 
0.02976629161 
0.02987630316 
0.02892206899 
0.06385262727 
0.06715897187 
0.07138911573 
0.06678252229 
0.04062457889 
0.07163205065 
0.06567884185 
0.04293534092 
0.03292036528 
0.03225774474 
0.03220541593 
0.07823022574 
0.03055396218 
0.03697762545 
0.09974519653 
0.07156070217 
0.07164308143 
0.06987939373 
0.06862310124 
0.1223609474 
0.03342852957 
0.02699124666 
0.02646797448 
0.02839037808 
0.03010472788 
0.03088060333 
0.07380834149 
0.07150471048 
0.07392445517 
0.07661767281 
0.07025130213 
0.07492920442 
0.0702537492 
0.07816713683 
0.07586347175 
0.08124829356 
0.07951999177 
0.07365747017 
0.07966278766 
0.07939015317 
0.07911778471 
0.07954050095 
0.08063515995 
0.03777691223 
0.02289226647 
0.02098957999 
0.02167562412 
0.02593220107 
0.02468117167 
0.03782963738 
0.05829547256 
0.06003070582 
0.05719600352 
0.05911668694 
0.0308263221 
0.05895465521 
0.05709422756 
0.05733105586 
0.03430195731 
0.05284830658 
0.05813305943 
0.06197659303 
0.06021626484 
0.05744060319 
0.05719039032 
0.0523792655 
0.05799074868 
0.05718455616 
0.03667242686 
0.0574792533 
0.05395300642 
0.05941763793 
0.0543090424 
0.05330289583 
0.05086628783 
0.05774629501 
0.05696160651 
0.02721167625 
0.02550196815 
0.0242869644 
0.02399134112 
0.0226865795 
0.02373647021 
0.022682741 
0.02356033013 
0.02519580296 
0.02359185367 
0.0249646137 
0.02376221983 
0.02302729804 
0.07735362283 
0.07314712465 
0.07916965444 
0.07639366728 
0.04709732161 
0.07409574471 
0.07869479149 
0.07370424567 
0.07994793469 
0.02463552511 
0.02692309641 
0.02471215629 
0.02558069983 
0.0244334603 
0.02392154449 
0.02647366536 
0.02627378534 
0.04864002908 
0.05285173156 
0.05310977609 
0.05315881239 
0.04935261952 
0.05168578554 
0.03502932377 
0.03327042344 
0.02826560323 
0.02527925681 
0.0276258373 
0.1234348366 
0.02464855545 
0.0260193851 
0.049570477 
0.96878623 
0.04622524741 
0.05289306587 
0.05321908315 
0.06202643083 
0.05350470386 
0.03662752602 
0.03397848635 
0.0404500506 
0.03791220371 
0.03665363029 
0.03823070838 
0.03419471224 
0.04460825061 
0.04686833267 
0.04563193897 
0.0371551111 
0.04004347447 
0.05042169023 
0.04528458706 
0.04772794645 
0.04337176031 
0.04047317818 
0.03904810887 
0.0465443871 
0.02410670016 
0.04580065706 
0.04309818085 
0.04868457505 
0.04476756825 
0.04507363952 
0.03376599938 
0.05825296608 
0.03295454957 
0.03169519232 
0.03004564521 
0.03335022501 
0.03332356298 
0.03310991061 
0.03233345067 
0.03278264712 
0.03193647055 
0.03495870482 
0.05356779891 
0.05677064591 
0.05492740096 
0.05130298678 
0.05178696287 
0.05358038356 
0.04946442976 
0.07581959188 
0.06958065575 
0.05929809711 
0.05405835972 
0.05797937429 
0.05986614498 
0.05234921083 
0.05226441467 
0.05970465117 
0.9921332435 
0.03456903279 
0.03618809166 
0.03358992825 
0.7129398294 
0.03653010547 
0.03402910279 
0.03951624494 
0.03640258642 
0.03582983235 
0.03030884342 
0.06437385499 
0.0665809319 
0.06532928142 
0.1383956744 
0.08248130151 
0.09527962295 
0.0746080541 
0.03108513955 
0.02519710151 
0.02294399435 
0.643816921 
0.02264362698 
0.02413086585 
0.9951714436 
0.02296167618 
0.06304564334 
0.7050740959 
0.07936127143 
0.1063414495 
0.07861422532 
0.03772306319 
0.07591610951 
0.08488963927 
0.2731847443 
0.0813400468 
0.07550746712 
0.05252226865 
0.04740177262 
0.04794469464 
0.0514517609 
0.9783994428 
0.05244257468 
0.05088192121 
0.04649470971 
0.07350083356 
0.06947853359 
0.07508359172 
0.07438813333 
0.07663032851 
0.07689331239 
0.07997695988 
0.07972380245 
0.06813761218 
0.07711679188 
0.07184323053 
0.07933603657 
0.06124358961 
0.06100981421 
0.06290684999 
0.06707079656 
0.06866926424 
0.06746096893 
0.0654814078 
0.068079772 
0.06383489874 
0.03090836715 
0.03417217756 
0.03509024639 
0.03232360326 
0.03546705963 
0.04451075284 
1.10054282 
0.03138045504 
0.0317238599 
0.03462341138 
0.03517040345 
0.03050100861 
0.03260893734 
0.03586560393 
0.03508382783 
0.06037720642 
0.06056636139 
0.05896161985 
0.06012728473 
0.0626666429 
0.05914543645 
0.03009661007 
0.03034769207 
0.02989879563 
0.02836664853 
0.02851903209 
0.03031144113 
0.03319976377 
0.03293799489 
0.07135220536 
0.07703247084 
0.07523808294 
0.0317228659 
0.07598700298 
0.0728372406 
0.07135585269 
0.07381579368 
0.07468809019 
0.06972911089 
0.06823091534 
0.07490519894 
0.0686505004 
0.911051448 
0.06869646575 
0.06852310857 
0.06882100605 
0.07059355033 
0.06360470312 
0.06136977956 
0.0620900607 
0.06228344207 
0.05771511637 
0.4765354136 
0.06234709837 
0.05751034673 
0.06305407714 
0.0628432332 
0.06085906634 
0.06305895947 
0.056529976 
0.05890908274 
0.05666129299 
0.05155507816 
0.06222206309 
0.06241433258 
0.05784362074 
0.06352522291 
0.06552802395 
0.06095091468 
0.08308457313 
0.06561899305 
0.07345319816 
0.06769073986 
0.03598181035 
0.03521701829 
0.02965689483 
0.0292438971 
0.03390871237 
0.03589315765 
0.03309930444 
0.03488062676 
0.03327633081 
0.03944683055 
0.03635335777 
0.03541712773 
0.03950618563 
0.03812732104 
0.06800040136 
0.07613673782 
0.07622055779 
0.08039660987 
0.7817771339 
0.06666873971 
0.06794325255 
0.07338142984 
0.05115623588 
0.06955129428 
0.05151862843 
0.03143978048 
0.04008041586 
0.03604353825 
0.03727858446 
0.03500321675 
0.03565466895 
0.03330254244 
0.03495569879 
0.03381240732 
0.1140543629 
0.07984825926 
0.1415853717 
0.08359798749 
0.08061324701 
0.08529462672 
0.08386577528 
0.07687936402 
0.02790593582 
0.0322530171 
0.03277360329 
0.0323835408 
0.02918371229 
0.02838550179 
0.03049658633 
0.03351496524 
0.03298706244 
0.03049045537 
0.03094172278 
0.0306051047 
0.02812991987 
0.0292216261 
0.02759095426 
0.0355327459 
0.02685157363 
0.6883233424 
0.02384850893 
0.02263426502 
0.02328590744 
0.08150223461 
0.07242503507 
0.07538806556 
0.08283749151 
0.07563724039 
0.07793497 
0.07997205542 
0.0847738197 
0.07725737163 
0.07168078323 
0.03114483437 
0.02853106926 
0.03576357399 
0.03415346658 
0.03166964339 
0.03551047795 
0.03430687164 
0.03247151555 
0.02507026755 
0.02817319035 
0.02600904145 
0.02789615816 
0.03095345648 
0.02873976854 
0.09008589803 
0.1086535111 
0.07946541554 
0.06418843414 
0.06518273486 
0.07018524055 
0.06410932061 
0.06081409138 
0.03623380238 
0.03633162058 
0.03892516375 
0.07764500114 
0.07273127409 
0.07836223312 
0.07433664052 
0.04859935451 
0.0468903244 
0.0463187821 
0.0456894934 
0.0715396417 
0.07673940009 
0.07336593846 
0.07674208639 
0.06985461762 
0.08605264817 
0.07031567596 
0.05937422104 
0.06132029256 
0.06088550021 
0.06466152376 
0.05993490458 
0.05770674116 
0.06252181762 
0.03093509686 
0.02663469341 
0.02479977133 
0.02601064409 
0.02519676201 
0.02700981184 
0.02697027773 
0.02957141528 
0.05638957708 
0.02443694683 
0.02520557813 
0.02643869717 
0.0406942243 
0.02748725356 
0.02685387684 
0.023293039 
0.02429004448 
0.07610717633 
0.02225864529 
0.02137116969 
0.02129092926 
0.02285689637 
0.08537747041 
0.05111281644 
0.020951655 
0.03698744623 
0.0596383087 
0.06959171167 
0.06448768315 
0.07057391614 
0.06658737821 
0.07267997596 
0.0767145565 
0.07340277922 
0.06295588617 
0.07140750675 
0.07088460682 
0.028710794 
0.02510671869 
0.02706458547 
0.02480944706 
0.02599921406 
0.02873208499 
0.02596130043 
0.02939010851 
0.02787026011 
0.02891461302 
0.03083344231 
0.02986932193 
0.02996591866 
0.0313525792 
0.03318129288 
0.02624382676 
0.02672199267 
0.02729600169 
0.02876610033 
0.02428996588 
0.02607943243 
0.02391341496 
0.4802559189 
0.02200864674 
0.04461433663 
0.02410318274 
0.02718014422 
0.03004898046 
0.0290933704 
0.02955288936 
0.02941364841 
0.02408351015 
0.03079426735 
0.02744671807 
0.02800082752 
0.03087781238 
0.6804855792 
0.0285912162 
0.9069849027 
0.02651412184 
0.0316932737 
0.02943049965 
0.02457913127 
0.02462956693 
0.02650303544 
0.02519927981 
0.02471093351 
0.02524793648 
0.02345700619 
0.02646027296 
0.02606296144 
0.04999369144 
0.04660179301 
0.05397708652 
0.05460634865 
0.05439582347 
0.05636681077 
0.06048446455 
0.0517780406 
0.0547170054 
0.04835106413 
0.05969762197 
0.0505222959 
0.05442591982 
0.05148311202 
0.05574413566 
0.06801222691 
0.04872628545 
0.06372583319 
0.07117801919 
0.06268404932 
0.06550995738 
0.0634810538 
0.0525206966 
0.07057233954 
0.06611645205 
0.06787825611 
0.06377007352 
0.06524490831 
0.07113590924 
0.06757580877 
0.06765741984 
0.0651039093 
0.0650071601 
0.02805203956 
0.02394118565 
0.02382637031 
0.02885079976 
0.1531888339 
0.02756787432 
0.02994451631 
0.02874395142 
0.3396764441 
0.02223338446 
0.0210334571 
0.02381137578 
0.02274498687 
0.0846277111 
0.02540877071 
0.0227554245 
0.04055316169 
0.03868086441 
0.03868757046 
0.04191366292 
0.04076966895 
0.03848744104 
0.03754225292 
0.04768819626 
0.04286655781 
0.04136700045 
0.03864098231 
0.03607472807 
0.03729288338 
0.04079366786 
0.04180423081 
0.03987940721 
0.07592379214 
0.04150019093 
0.03932908384 
0.03942960622 
0.03889842123 
0.05200388664 
0.05017211424 
0.05007099784 
0.0495333718 
0.04974307412 
0.05419855261 
0.02578384508 
0.02329205481 
0.02886448787 
0.02418764882 
0.02081551718 
0.02275693274 
0.02123914566 
0.07739131654 
0.07960710982 
0.07717005924 
0.07484146541 
0.07497651941 
0.0829256691 
0.07275445024 
0.06918104089 
0.07440557461 
0.893509322 
0.07773931229 
0.07822165326 
0.06842428607 
0.07746116908 
0.08454721161 
0.07618819054 
0.07767927876 
0.07682305858 
0.07123864404 
0.07892058763 
0.06858085379 
0.07846465384 
0.08100766113 
0.07846591565 
0.08302055099 
0.08045832923 
0.08582683632 
0.07762190358 
0.02600916861 
0.02459170783 
0.0544420754 
0.05107874413 
0.05167660195 
0.04342174186 
0.05011114137 
0.05060403513 
0.04724030516 
0.03139645269 
0.03403752077 
0.03275191726 
0.0343560449 
0.03071432839 